n -t * -s 0  -x 0 -y 0 -Z 0 -z 20  -v circle -c black
n -t * -s 1  -x 0 -y 0 -Z 0 -z 20  -v circle -c black
n -t * -s 2  -x 0 -y 0 -Z 0 -z 20  -v circle -c black
n -t * -s 3  -x 0 -y 0 -Z 0 -z 20  -v circle -c black
n -t * -s 4  -x 0 -y 0 -Z 0 -z 20  -v circle -c black
n -t * -s 5  -x 0 -y 0 -Z 0 -z 20  -v circle -c black
n -t * -s 6  -x 0 -y 0 -Z 0 -z 20  -v circle -c black
n -t * -s 7  -x 0 -y 0 -Z 0 -z 20  -v circle -c black
n -t * -s 8  -x 0 -y 0 -Z 0 -z 20  -v circle -c black
n -t * -s 9  -x 0 -y 0 -Z 0 -z 20  -v circle -c black
V -t * -v 1.0a5 -a 0
W -t * -x 500 -y 500
A -t * -n 1 -p 0 -o 0x7fffffff -c 30 -a 1
A -t * -h 1 -m 1073741823 -s 0
n -t 0.000000 -s 0 -x 412.000000 -y 335.000000 -U 70.710678 -V 70.710678 -T 0.014142
n -t 0.000000 -s 1 -x 170.000000 -y 434.000000 -U 70.710678 -V 70.710678 -T 0.014142
n -t 0.000000 -s 2 -x 141.000000 -y 462.000000 -U 70.710678 -V 70.710678 -T 0.014142
n -t 0.000000 -s 3 -x 82.000000 -y 438.000000 -U 70.710678 -V 70.710678 -T 0.014142
n -t 0.000000 -s 4 -x 287.000000 -y 67.000000 -U 70.710678 -V 70.710678 -T 0.014142
n -t 0.000000 -s 5 -x 401.000000 -y 459.000000 -U 70.710678 -V 70.710678 -T 0.014142
n -t 0.000000 -s 6 -x 51.000000 -y 76.000000 -U 70.710678 -V 70.710678 -T 0.014142
n -t 0.000000 -s 7 -x 172.000000 -y 370.000000 -U 70.710678 -V 70.710678 -T 0.014142
n -t 0.000000 -s 8 -x 335.000000 -y 151.000000 -U 70.710678 -V 70.710678 -T 0.014142
n -t 0.000000 -s 9 -x 286.000000 -y 101.000000 -U 70.710678 -V 70.710678 -T 0.014142
+ -t 1.000000000 -s 0 -d -1 -p cbr -e 210 -c 2 -a 0 -i 0 -k AGT 
- -t 1.000000000 -s 0 -d -1 -p cbr -e 210 -c 2 -a 0 -i 0 -k AGT
h -t 1.000000000 -s 0 -d -1 -p cbr -e 210 -c 2 -a 0 -i 0 -k AGT
+ -t 1.000000000 -s 1 -d -1 -p cbr -e 210 -c 2 -a 0 -i 1 -k AGT 
- -t 1.000000000 -s 1 -d -1 -p cbr -e 210 -c 2 -a 0 -i 1 -k AGT
h -t 1.000000000 -s 1 -d -1 -p cbr -e 210 -c 2 -a 0 -i 1 -k AGT
+ -t 1.000000000 -s 2 -d -1 -p cbr -e 210 -c 2 -a 0 -i 2 -k AGT 
- -t 1.000000000 -s 2 -d -1 -p cbr -e 210 -c 2 -a 0 -i 2 -k AGT
h -t 1.000000000 -s 2 -d -1 -p cbr -e 210 -c 2 -a 0 -i 2 -k AGT
+ -t 1.000000000 -s 3 -d -1 -p cbr -e 210 -c 2 -a 0 -i 3 -k AGT 
- -t 1.000000000 -s 3 -d -1 -p cbr -e 210 -c 2 -a 0 -i 3 -k AGT
h -t 1.000000000 -s 3 -d -1 -p cbr -e 210 -c 2 -a 0 -i 3 -k AGT
+ -t 1.000000000 -s 4 -d -1 -p cbr -e 210 -c 2 -a 0 -i 4 -k AGT 
- -t 1.000000000 -s 4 -d -1 -p cbr -e 210 -c 2 -a 0 -i 4 -k AGT
h -t 1.000000000 -s 4 -d -1 -p cbr -e 210 -c 2 -a 0 -i 4 -k AGT
+ -t 1.000000000 -s 0 -d -1 -p AODV -e 48 -c 2 -a 0 -i 0 -k RTR 
- -t 1.000000000 -s 0 -d -1 -p AODV -e 48 -c 2 -a 0 -i 0 -k RTR
h -t 1.000000000 -s 0 -d -1 -p AODV -e 48 -c 2 -a 0 -i 0 -k RTR
+ -t 1.000000000 -s 1 -d -1 -p AODV -e 48 -c 2 -a 0 -i 0 -k RTR 
- -t 1.000000000 -s 1 -d -1 -p AODV -e 48 -c 2 -a 0 -i 0 -k RTR
h -t 1.000000000 -s 1 -d -1 -p AODV -e 48 -c 2 -a 0 -i 0 -k RTR
+ -t 1.000000000 -s 2 -d -1 -p AODV -e 48 -c 2 -a 0 -i 0 -k RTR 
- -t 1.000000000 -s 2 -d -1 -p AODV -e 48 -c 2 -a 0 -i 0 -k RTR
h -t 1.000000000 -s 2 -d -1 -p AODV -e 48 -c 2 -a 0 -i 0 -k RTR
+ -t 1.000000000 -s 3 -d -1 -p AODV -e 48 -c 2 -a 0 -i 0 -k RTR 
- -t 1.000000000 -s 3 -d -1 -p AODV -e 48 -c 2 -a 0 -i 0 -k RTR
h -t 1.000000000 -s 3 -d -1 -p AODV -e 48 -c 2 -a 0 -i 0 -k RTR
+ -t 1.000000000 -s 4 -d -1 -p AODV -e 48 -c 2 -a 0 -i 0 -k RTR 
- -t 1.000000000 -s 4 -d -1 -p AODV -e 48 -c 2 -a 0 -i 0 -k RTR
h -t 1.000000000 -s 4 -d -1 -p AODV -e 48 -c 2 -a 0 -i 0 -k RTR
+ -t 1.003750000 -s 0 -d -1 -p cbr -e 210 -c 2 -a 0 -i 5 -k AGT 
- -t 1.003750000 -s 0 -d -1 -p cbr -e 210 -c 2 -a 0 -i 5 -k AGT
h -t 1.003750000 -s 0 -d -1 -p cbr -e 210 -c 2 -a 0 -i 5 -k AGT
+ -t 1.003750000 -s 1 -d -1 -p cbr -e 210 -c 2 -a 0 -i 6 -k AGT 
- -t 1.003750000 -s 1 -d -1 -p cbr -e 210 -c 2 -a 0 -i 6 -k AGT
h -t 1.003750000 -s 1 -d -1 -p cbr -e 210 -c 2 -a 0 -i 6 -k AGT
+ -t 1.003750000 -s 2 -d -1 -p cbr -e 210 -c 2 -a 0 -i 7 -k AGT 
- -t 1.003750000 -s 2 -d -1 -p cbr -e 210 -c 2 -a 0 -i 7 -k AGT
h -t 1.003750000 -s 2 -d -1 -p cbr -e 210 -c 2 -a 0 -i 7 -k AGT
+ -t 1.003750000 -s 3 -d -1 -p cbr -e 210 -c 2 -a 0 -i 8 -k AGT 
- -t 1.003750000 -s 3 -d -1 -p cbr -e 210 -c 2 -a 0 -i 8 -k AGT
h -t 1.003750000 -s 3 -d -1 -p cbr -e 210 -c 2 -a 0 -i 8 -k AGT
+ -t 1.003750000 -s 4 -d -1 -p cbr -e 210 -c 2 -a 0 -i 9 -k AGT 
- -t 1.003750000 -s 4 -d -1 -p cbr -e 210 -c 2 -a 0 -i 9 -k AGT
h -t 1.003750000 -s 4 -d -1 -p cbr -e 210 -c 2 -a 0 -i 9 -k AGT
+ -t 1.007500000 -s 0 -d -1 -p cbr -e 210 -c 2 -a 0 -i 10 -k AGT 
- -t 1.007500000 -s 0 -d -1 -p cbr -e 210 -c 2 -a 0 -i 10 -k AGT
h -t 1.007500000 -s 0 -d -1 -p cbr -e 210 -c 2 -a 0 -i 10 -k AGT
+ -t 1.007500000 -s 1 -d -1 -p cbr -e 210 -c 2 -a 0 -i 11 -k AGT 
- -t 1.007500000 -s 1 -d -1 -p cbr -e 210 -c 2 -a 0 -i 11 -k AGT
h -t 1.007500000 -s 1 -d -1 -p cbr -e 210 -c 2 -a 0 -i 11 -k AGT
+ -t 1.007500000 -s 2 -d -1 -p cbr -e 210 -c 2 -a 0 -i 12 -k AGT 
- -t 1.007500000 -s 2 -d -1 -p cbr -e 210 -c 2 -a 0 -i 12 -k AGT
h -t 1.007500000 -s 2 -d -1 -p cbr -e 210 -c 2 -a 0 -i 12 -k AGT
+ -t 1.007500000 -s 3 -d -1 -p cbr -e 210 -c 2 -a 0 -i 13 -k AGT 
- -t 1.007500000 -s 3 -d -1 -p cbr -e 210 -c 2 -a 0 -i 13 -k AGT
h -t 1.007500000 -s 3 -d -1 -p cbr -e 210 -c 2 -a 0 -i 13 -k AGT
+ -t 1.007500000 -s 4 -d -1 -p cbr -e 210 -c 2 -a 0 -i 14 -k AGT 
- -t 1.007500000 -s 4 -d -1 -p cbr -e 210 -c 2 -a 0 -i 14 -k AGT
h -t 1.007500000 -s 4 -d -1 -p cbr -e 210 -c 2 -a 0 -i 14 -k AGT
+ -t 1.011250000 -s 0 -d -1 -p cbr -e 210 -c 2 -a 0 -i 15 -k AGT 
- -t 1.011250000 -s 0 -d -1 -p cbr -e 210 -c 2 -a 0 -i 15 -k AGT
h -t 1.011250000 -s 0 -d -1 -p cbr -e 210 -c 2 -a 0 -i 15 -k AGT
+ -t 1.011250000 -s 1 -d -1 -p cbr -e 210 -c 2 -a 0 -i 16 -k AGT 
- -t 1.011250000 -s 1 -d -1 -p cbr -e 210 -c 2 -a 0 -i 16 -k AGT
h -t 1.011250000 -s 1 -d -1 -p cbr -e 210 -c 2 -a 0 -i 16 -k AGT
+ -t 1.011250000 -s 2 -d -1 -p cbr -e 210 -c 2 -a 0 -i 17 -k AGT 
- -t 1.011250000 -s 2 -d -1 -p cbr -e 210 -c 2 -a 0 -i 17 -k AGT
h -t 1.011250000 -s 2 -d -1 -p cbr -e 210 -c 2 -a 0 -i 17 -k AGT
+ -t 1.011250000 -s 3 -d -1 -p cbr -e 210 -c 2 -a 0 -i 18 -k AGT 
- -t 1.011250000 -s 3 -d -1 -p cbr -e 210 -c 2 -a 0 -i 18 -k AGT
h -t 1.011250000 -s 3 -d -1 -p cbr -e 210 -c 2 -a 0 -i 18 -k AGT
+ -t 1.011250000 -s 4 -d -1 -p cbr -e 210 -c 2 -a 0 -i 19 -k AGT 
- -t 1.011250000 -s 4 -d -1 -p cbr -e 210 -c 2 -a 0 -i 19 -k AGT
h -t 1.011250000 -s 4 -d -1 -p cbr -e 210 -c 2 -a 0 -i 19 -k AGT
+ -t 1.015000000 -s 0 -d -1 -p cbr -e 210 -c 2 -a 0 -i 20 -k AGT 
- -t 1.015000000 -s 0 -d -1 -p cbr -e 210 -c 2 -a 0 -i 20 -k AGT
h -t 1.015000000 -s 0 -d -1 -p cbr -e 210 -c 2 -a 0 -i 20 -k AGT
+ -t 1.015000000 -s 1 -d -1 -p cbr -e 210 -c 2 -a 0 -i 21 -k AGT 
- -t 1.015000000 -s 1 -d -1 -p cbr -e 210 -c 2 -a 0 -i 21 -k AGT
h -t 1.015000000 -s 1 -d -1 -p cbr -e 210 -c 2 -a 0 -i 21 -k AGT
+ -t 1.015000000 -s 2 -d -1 -p cbr -e 210 -c 2 -a 0 -i 22 -k AGT 
- -t 1.015000000 -s 2 -d -1 -p cbr -e 210 -c 2 -a 0 -i 22 -k AGT
h -t 1.015000000 -s 2 -d -1 -p cbr -e 210 -c 2 -a 0 -i 22 -k AGT
+ -t 1.015000000 -s 3 -d -1 -p cbr -e 210 -c 2 -a 0 -i 23 -k AGT 
- -t 1.015000000 -s 3 -d -1 -p cbr -e 210 -c 2 -a 0 -i 23 -k AGT
h -t 1.015000000 -s 3 -d -1 -p cbr -e 210 -c 2 -a 0 -i 23 -k AGT
+ -t 1.015000000 -s 4 -d -1 -p cbr -e 210 -c 2 -a 0 -i 24 -k AGT 
- -t 1.015000000 -s 4 -d -1 -p cbr -e 210 -c 2 -a 0 -i 24 -k AGT
h -t 1.015000000 -s 4 -d -1 -p cbr -e 210 -c 2 -a 0 -i 24 -k AGT
+ -t 1.018750000 -s 0 -d -1 -p cbr -e 210 -c 2 -a 0 -i 25 -k AGT 
- -t 1.018750000 -s 0 -d -1 -p cbr -e 210 -c 2 -a 0 -i 25 -k AGT
h -t 1.018750000 -s 0 -d -1 -p cbr -e 210 -c 2 -a 0 -i 25 -k AGT
+ -t 1.018750000 -s 1 -d -1 -p cbr -e 210 -c 2 -a 0 -i 26 -k AGT 
- -t 1.018750000 -s 1 -d -1 -p cbr -e 210 -c 2 -a 0 -i 26 -k AGT
h -t 1.018750000 -s 1 -d -1 -p cbr -e 210 -c 2 -a 0 -i 26 -k AGT
+ -t 1.018750000 -s 2 -d -1 -p cbr -e 210 -c 2 -a 0 -i 27 -k AGT 
- -t 1.018750000 -s 2 -d -1 -p cbr -e 210 -c 2 -a 0 -i 27 -k AGT
h -t 1.018750000 -s 2 -d -1 -p cbr -e 210 -c 2 -a 0 -i 27 -k AGT
+ -t 1.018750000 -s 3 -d -1 -p cbr -e 210 -c 2 -a 0 -i 28 -k AGT 
- -t 1.018750000 -s 3 -d -1 -p cbr -e 210 -c 2 -a 0 -i 28 -k AGT
h -t 1.018750000 -s 3 -d -1 -p cbr -e 210 -c 2 -a 0 -i 28 -k AGT
+ -t 1.018750000 -s 4 -d -1 -p cbr -e 210 -c 2 -a 0 -i 29 -k AGT 
- -t 1.018750000 -s 4 -d -1 -p cbr -e 210 -c 2 -a 0 -i 29 -k AGT
h -t 1.018750000 -s 4 -d -1 -p cbr -e 210 -c 2 -a 0 -i 29 -k AGT
+ -t 1.021025000 -s 0 -d -1 -p AODV -e 48 -c 2 -a 0 -i 0 -k MAC 
- -t 1.021025000 -s 0 -d -1 -p AODV -e 48 -c 2 -a 0 -i 0 -k MAC
h -t 1.021025000 -s 0 -d -1 -p AODV -e 48 -c 2 -a 0 -i 0 -k MAC
+ -t 1.022500000 -s 0 -d -1 -p cbr -e 210 -c 2 -a 0 -i 30 -k AGT 
- -t 1.022500000 -s 0 -d -1 -p cbr -e 210 -c 2 -a 0 -i 30 -k AGT
h -t 1.022500000 -s 0 -d -1 -p cbr -e 210 -c 2 -a 0 -i 30 -k AGT
+ -t 1.022500000 -s 1 -d -1 -p cbr -e 210 -c 2 -a 0 -i 31 -k AGT 
- -t 1.022500000 -s 1 -d -1 -p cbr -e 210 -c 2 -a 0 -i 31 -k AGT
h -t 1.022500000 -s 1 -d -1 -p cbr -e 210 -c 2 -a 0 -i 31 -k AGT
+ -t 1.022500000 -s 2 -d -1 -p cbr -e 210 -c 2 -a 0 -i 32 -k AGT 
- -t 1.022500000 -s 2 -d -1 -p cbr -e 210 -c 2 -a 0 -i 32 -k AGT
h -t 1.022500000 -s 2 -d -1 -p cbr -e 210 -c 2 -a 0 -i 32 -k AGT
+ -t 1.022500000 -s 3 -d -1 -p cbr -e 210 -c 2 -a 0 -i 33 -k AGT 
- -t 1.022500000 -s 3 -d -1 -p cbr -e 210 -c 2 -a 0 -i 33 -k AGT
h -t 1.022500000 -s 3 -d -1 -p cbr -e 210 -c 2 -a 0 -i 33 -k AGT
+ -t 1.022500000 -s 4 -d -1 -p cbr -e 210 -c 2 -a 0 -i 34 -k AGT 
- -t 1.022500000 -s 4 -d -1 -p cbr -e 210 -c 2 -a 0 -i 34 -k AGT
h -t 1.022500000 -s 4 -d -1 -p cbr -e 210 -c 2 -a 0 -i 34 -k AGT
+ -t 1.026250000 -s 0 -d -1 -p cbr -e 210 -c 2 -a 0 -i 35 -k AGT 
- -t 1.026250000 -s 0 -d -1 -p cbr -e 210 -c 2 -a 0 -i 35 -k AGT
h -t 1.026250000 -s 0 -d -1 -p cbr -e 210 -c 2 -a 0 -i 35 -k AGT
+ -t 1.026250000 -s 1 -d -1 -p cbr -e 210 -c 2 -a 0 -i 36 -k AGT 
- -t 1.026250000 -s 1 -d -1 -p cbr -e 210 -c 2 -a 0 -i 36 -k AGT
h -t 1.026250000 -s 1 -d -1 -p cbr -e 210 -c 2 -a 0 -i 36 -k AGT
+ -t 1.026250000 -s 2 -d -1 -p cbr -e 210 -c 2 -a 0 -i 37 -k AGT 
- -t 1.026250000 -s 2 -d -1 -p cbr -e 210 -c 2 -a 0 -i 37 -k AGT
h -t 1.026250000 -s 2 -d -1 -p cbr -e 210 -c 2 -a 0 -i 37 -k AGT
+ -t 1.026250000 -s 3 -d -1 -p cbr -e 210 -c 2 -a 0 -i 38 -k AGT 
- -t 1.026250000 -s 3 -d -1 -p cbr -e 210 -c 2 -a 0 -i 38 -k AGT
h -t 1.026250000 -s 3 -d -1 -p cbr -e 210 -c 2 -a 0 -i 38 -k AGT
+ -t 1.026250000 -s 4 -d -1 -p cbr -e 210 -c 2 -a 0 -i 39 -k AGT 
- -t 1.026250000 -s 4 -d -1 -p cbr -e 210 -c 2 -a 0 -i 39 -k AGT
h -t 1.026250000 -s 4 -d -1 -p cbr -e 210 -c 2 -a 0 -i 39 -k AGT
+ -t 1.030000000 -s 0 -d -1 -p cbr -e 210 -c 2 -a 0 -i 40 -k AGT 
- -t 1.030000000 -s 0 -d -1 -p cbr -e 210 -c 2 -a 0 -i 40 -k AGT
h -t 1.030000000 -s 0 -d -1 -p cbr -e 210 -c 2 -a 0 -i 40 -k AGT
+ -t 1.030000000 -s 1 -d -1 -p cbr -e 210 -c 2 -a 0 -i 41 -k AGT 
- -t 1.030000000 -s 1 -d -1 -p cbr -e 210 -c 2 -a 0 -i 41 -k AGT
h -t 1.030000000 -s 1 -d -1 -p cbr -e 210 -c 2 -a 0 -i 41 -k AGT
+ -t 1.030000000 -s 2 -d -1 -p cbr -e 210 -c 2 -a 0 -i 42 -k AGT 
- -t 1.030000000 -s 2 -d -1 -p cbr -e 210 -c 2 -a 0 -i 42 -k AGT
h -t 1.030000000 -s 2 -d -1 -p cbr -e 210 -c 2 -a 0 -i 42 -k AGT
+ -t 1.030000000 -s 3 -d -1 -p cbr -e 210 -c 2 -a 0 -i 43 -k AGT 
- -t 1.030000000 -s 3 -d -1 -p cbr -e 210 -c 2 -a 0 -i 43 -k AGT
h -t 1.030000000 -s 3 -d -1 -p cbr -e 210 -c 2 -a 0 -i 43 -k AGT
+ -t 1.030000000 -s 4 -d -1 -p cbr -e 210 -c 2 -a 0 -i 44 -k AGT 
- -t 1.030000000 -s 4 -d -1 -p cbr -e 210 -c 2 -a 0 -i 44 -k AGT
h -t 1.030000000 -s 4 -d -1 -p cbr -e 210 -c 2 -a 0 -i 44 -k AGT
+ -t 1.033750000 -s 0 -d -1 -p cbr -e 210 -c 2 -a 0 -i 45 -k AGT 
- -t 1.033750000 -s 0 -d -1 -p cbr -e 210 -c 2 -a 0 -i 45 -k AGT
h -t 1.033750000 -s 0 -d -1 -p cbr -e 210 -c 2 -a 0 -i 45 -k AGT
+ -t 1.033750000 -s 1 -d -1 -p cbr -e 210 -c 2 -a 0 -i 46 -k AGT 
- -t 1.033750000 -s 1 -d -1 -p cbr -e 210 -c 2 -a 0 -i 46 -k AGT
h -t 1.033750000 -s 1 -d -1 -p cbr -e 210 -c 2 -a 0 -i 46 -k AGT
+ -t 1.033750000 -s 2 -d -1 -p cbr -e 210 -c 2 -a 0 -i 47 -k AGT 
- -t 1.033750000 -s 2 -d -1 -p cbr -e 210 -c 2 -a 0 -i 47 -k AGT
h -t 1.033750000 -s 2 -d -1 -p cbr -e 210 -c 2 -a 0 -i 47 -k AGT
+ -t 1.033750000 -s 3 -d -1 -p cbr -e 210 -c 2 -a 0 -i 48 -k AGT 
- -t 1.033750000 -s 3 -d -1 -p cbr -e 210 -c 2 -a 0 -i 48 -k AGT
h -t 1.033750000 -s 3 -d -1 -p cbr -e 210 -c 2 -a 0 -i 48 -k AGT
+ -t 1.033750000 -s 4 -d -1 -p cbr -e 210 -c 2 -a 0 -i 49 -k AGT 
- -t 1.033750000 -s 4 -d -1 -p cbr -e 210 -c 2 -a 0 -i 49 -k AGT
h -t 1.033750000 -s 4 -d -1 -p cbr -e 210 -c 2 -a 0 -i 49 -k AGT
+ -t 1.037500000 -s 0 -d -1 -p cbr -e 210 -c 2 -a 0 -i 50 -k AGT 
- -t 1.037500000 -s 0 -d -1 -p cbr -e 210 -c 2 -a 0 -i 50 -k AGT
h -t 1.037500000 -s 0 -d -1 -p cbr -e 210 -c 2 -a 0 -i 50 -k AGT
+ -t 1.037500000 -s 1 -d -1 -p cbr -e 210 -c 2 -a 0 -i 51 -k AGT 
- -t 1.037500000 -s 1 -d -1 -p cbr -e 210 -c 2 -a 0 -i 51 -k AGT
h -t 1.037500000 -s 1 -d -1 -p cbr -e 210 -c 2 -a 0 -i 51 -k AGT
+ -t 1.037500000 -s 2 -d -1 -p cbr -e 210 -c 2 -a 0 -i 52 -k AGT 
- -t 1.037500000 -s 2 -d -1 -p cbr -e 210 -c 2 -a 0 -i 52 -k AGT
h -t 1.037500000 -s 2 -d -1 -p cbr -e 210 -c 2 -a 0 -i 52 -k AGT
+ -t 1.037500000 -s 3 -d -1 -p cbr -e 210 -c 2 -a 0 -i 53 -k AGT 
- -t 1.037500000 -s 3 -d -1 -p cbr -e 210 -c 2 -a 0 -i 53 -k AGT
h -t 1.037500000 -s 3 -d -1 -p cbr -e 210 -c 2 -a 0 -i 53 -k AGT
+ -t 1.037500000 -s 4 -d -1 -p cbr -e 210 -c 2 -a 0 -i 54 -k AGT 
- -t 1.037500000 -s 4 -d -1 -p cbr -e 210 -c 2 -a 0 -i 54 -k AGT
h -t 1.037500000 -s 4 -d -1 -p cbr -e 210 -c 2 -a 0 -i 54 -k AGT
+ -t 1.041250000 -s 0 -d -1 -p cbr -e 210 -c 2 -a 0 -i 55 -k AGT 
- -t 1.041250000 -s 0 -d -1 -p cbr -e 210 -c 2 -a 0 -i 55 -k AGT
h -t 1.041250000 -s 0 -d -1 -p cbr -e 210 -c 2 -a 0 -i 55 -k AGT
+ -t 1.041250000 -s 1 -d -1 -p cbr -e 210 -c 2 -a 0 -i 56 -k AGT 
- -t 1.041250000 -s 1 -d -1 -p cbr -e 210 -c 2 -a 0 -i 56 -k AGT
h -t 1.041250000 -s 1 -d -1 -p cbr -e 210 -c 2 -a 0 -i 56 -k AGT
+ -t 1.041250000 -s 2 -d -1 -p cbr -e 210 -c 2 -a 0 -i 57 -k AGT 
- -t 1.041250000 -s 2 -d -1 -p cbr -e 210 -c 2 -a 0 -i 57 -k AGT
h -t 1.041250000 -s 2 -d -1 -p cbr -e 210 -c 2 -a 0 -i 57 -k AGT
+ -t 1.041250000 -s 3 -d -1 -p cbr -e 210 -c 2 -a 0 -i 58 -k AGT 
- -t 1.041250000 -s 3 -d -1 -p cbr -e 210 -c 2 -a 0 -i 58 -k AGT
h -t 1.041250000 -s 3 -d -1 -p cbr -e 210 -c 2 -a 0 -i 58 -k AGT
+ -t 1.041250000 -s 4 -d -1 -p cbr -e 210 -c 2 -a 0 -i 59 -k AGT 
- -t 1.041250000 -s 4 -d -1 -p cbr -e 210 -c 2 -a 0 -i 59 -k AGT
h -t 1.041250000 -s 4 -d -1 -p cbr -e 210 -c 2 -a 0 -i 59 -k AGT
+ -t 1.045000000 -s 0 -d -1 -p cbr -e 210 -c 2 -a 0 -i 60 -k AGT 
- -t 1.045000000 -s 0 -d -1 -p cbr -e 210 -c 2 -a 0 -i 60 -k AGT
h -t 1.045000000 -s 0 -d -1 -p cbr -e 210 -c 2 -a 0 -i 60 -k AGT
+ -t 1.045000000 -s 1 -d -1 -p cbr -e 210 -c 2 -a 0 -i 61 -k AGT 
- -t 1.045000000 -s 1 -d -1 -p cbr -e 210 -c 2 -a 0 -i 61 -k AGT
h -t 1.045000000 -s 1 -d -1 -p cbr -e 210 -c 2 -a 0 -i 61 -k AGT
+ -t 1.045000000 -s 2 -d -1 -p cbr -e 210 -c 2 -a 0 -i 62 -k AGT 
- -t 1.045000000 -s 2 -d -1 -p cbr -e 210 -c 2 -a 0 -i 62 -k AGT
h -t 1.045000000 -s 2 -d -1 -p cbr -e 210 -c 2 -a 0 -i 62 -k AGT
+ -t 1.045000000 -s 3 -d -1 -p cbr -e 210 -c 2 -a 0 -i 63 -k AGT 
- -t 1.045000000 -s 3 -d -1 -p cbr -e 210 -c 2 -a 0 -i 63 -k AGT
h -t 1.045000000 -s 3 -d -1 -p cbr -e 210 -c 2 -a 0 -i 63 -k AGT
+ -t 1.045000000 -s 4 -d -1 -p cbr -e 210 -c 2 -a 0 -i 64 -k AGT 
- -t 1.045000000 -s 4 -d -1 -p cbr -e 210 -c 2 -a 0 -i 64 -k AGT
h -t 1.045000000 -s 4 -d -1 -p cbr -e 210 -c 2 -a 0 -i 64 -k AGT
+ -t 1.048750000 -s 0 -d -1 -p cbr -e 210 -c 2 -a 0 -i 65 -k AGT 
- -t 1.048750000 -s 0 -d -1 -p cbr -e 210 -c 2 -a 0 -i 65 -k AGT
h -t 1.048750000 -s 0 -d -1 -p cbr -e 210 -c 2 -a 0 -i 65 -k AGT
+ -t 1.048750000 -s 1 -d -1 -p cbr -e 210 -c 2 -a 0 -i 66 -k AGT 
- -t 1.048750000 -s 1 -d -1 -p cbr -e 210 -c 2 -a 0 -i 66 -k AGT
h -t 1.048750000 -s 1 -d -1 -p cbr -e 210 -c 2 -a 0 -i 66 -k AGT
+ -t 1.048750000 -s 2 -d -1 -p cbr -e 210 -c 2 -a 0 -i 67 -k AGT 
- -t 1.048750000 -s 2 -d -1 -p cbr -e 210 -c 2 -a 0 -i 67 -k AGT
h -t 1.048750000 -s 2 -d -1 -p cbr -e 210 -c 2 -a 0 -i 67 -k AGT
+ -t 1.048750000 -s 3 -d -1 -p cbr -e 210 -c 2 -a 0 -i 68 -k AGT 
- -t 1.048750000 -s 3 -d -1 -p cbr -e 210 -c 2 -a 0 -i 68 -k AGT
h -t 1.048750000 -s 3 -d -1 -p cbr -e 210 -c 2 -a 0 -i 68 -k AGT
+ -t 1.048750000 -s 4 -d -1 -p cbr -e 210 -c 2 -a 0 -i 69 -k AGT 
- -t 1.048750000 -s 4 -d -1 -p cbr -e 210 -c 2 -a 0 -i 69 -k AGT
h -t 1.048750000 -s 4 -d -1 -p cbr -e 210 -c 2 -a 0 -i 69 -k AGT
+ -t 1.052500000 -s 0 -d -1 -p cbr -e 210 -c 2 -a 0 -i 70 -k AGT 
- -t 1.052500000 -s 0 -d -1 -p cbr -e 210 -c 2 -a 0 -i 70 -k AGT
h -t 1.052500000 -s 0 -d -1 -p cbr -e 210 -c 2 -a 0 -i 70 -k AGT
+ -t 1.052500000 -s 1 -d -1 -p cbr -e 210 -c 2 -a 0 -i 71 -k AGT 
- -t 1.052500000 -s 1 -d -1 -p cbr -e 210 -c 2 -a 0 -i 71 -k AGT
h -t 1.052500000 -s 1 -d -1 -p cbr -e 210 -c 2 -a 0 -i 71 -k AGT
+ -t 1.052500000 -s 2 -d -1 -p cbr -e 210 -c 2 -a 0 -i 72 -k AGT 
- -t 1.052500000 -s 2 -d -1 -p cbr -e 210 -c 2 -a 0 -i 72 -k AGT
h -t 1.052500000 -s 2 -d -1 -p cbr -e 210 -c 2 -a 0 -i 72 -k AGT
+ -t 1.052500000 -s 3 -d -1 -p cbr -e 210 -c 2 -a 0 -i 73 -k AGT 
- -t 1.052500000 -s 3 -d -1 -p cbr -e 210 -c 2 -a 0 -i 73 -k AGT
h -t 1.052500000 -s 3 -d -1 -p cbr -e 210 -c 2 -a 0 -i 73 -k AGT
+ -t 1.052500000 -s 4 -d -1 -p cbr -e 210 -c 2 -a 0 -i 74 -k AGT 
- -t 1.052500000 -s 4 -d -1 -p cbr -e 210 -c 2 -a 0 -i 74 -k AGT
h -t 1.052500000 -s 4 -d -1 -p cbr -e 210 -c 2 -a 0 -i 74 -k AGT
+ -t 1.056250000 -s 0 -d -1 -p cbr -e 210 -c 2 -a 0 -i 75 -k AGT 
- -t 1.056250000 -s 0 -d -1 -p cbr -e 210 -c 2 -a 0 -i 75 -k AGT
h -t 1.056250000 -s 0 -d -1 -p cbr -e 210 -c 2 -a 0 -i 75 -k AGT
+ -t 1.056250000 -s 1 -d -1 -p cbr -e 210 -c 2 -a 0 -i 76 -k AGT 
- -t 1.056250000 -s 1 -d -1 -p cbr -e 210 -c 2 -a 0 -i 76 -k AGT
h -t 1.056250000 -s 1 -d -1 -p cbr -e 210 -c 2 -a 0 -i 76 -k AGT
+ -t 1.056250000 -s 2 -d -1 -p cbr -e 210 -c 2 -a 0 -i 77 -k AGT 
- -t 1.056250000 -s 2 -d -1 -p cbr -e 210 -c 2 -a 0 -i 77 -k AGT
h -t 1.056250000 -s 2 -d -1 -p cbr -e 210 -c 2 -a 0 -i 77 -k AGT
+ -t 1.056250000 -s 3 -d -1 -p cbr -e 210 -c 2 -a 0 -i 78 -k AGT 
- -t 1.056250000 -s 3 -d -1 -p cbr -e 210 -c 2 -a 0 -i 78 -k AGT
h -t 1.056250000 -s 3 -d -1 -p cbr -e 210 -c 2 -a 0 -i 78 -k AGT
+ -t 1.056250000 -s 4 -d -1 -p cbr -e 210 -c 2 -a 0 -i 79 -k AGT 
- -t 1.056250000 -s 4 -d -1 -p cbr -e 210 -c 2 -a 0 -i 79 -k AGT
h -t 1.056250000 -s 4 -d -1 -p cbr -e 210 -c 2 -a 0 -i 79 -k AGT
+ -t 1.060000000 -s 0 -d -1 -p cbr -e 210 -c 2 -a 0 -i 80 -k AGT 
- -t 1.060000000 -s 0 -d -1 -p cbr -e 210 -c 2 -a 0 -i 80 -k AGT
h -t 1.060000000 -s 0 -d -1 -p cbr -e 210 -c 2 -a 0 -i 80 -k AGT
+ -t 1.060000000 -s 1 -d -1 -p cbr -e 210 -c 2 -a 0 -i 81 -k AGT 
- -t 1.060000000 -s 1 -d -1 -p cbr -e 210 -c 2 -a 0 -i 81 -k AGT
h -t 1.060000000 -s 1 -d -1 -p cbr -e 210 -c 2 -a 0 -i 81 -k AGT
+ -t 1.060000000 -s 2 -d -1 -p cbr -e 210 -c 2 -a 0 -i 82 -k AGT 
- -t 1.060000000 -s 2 -d -1 -p cbr -e 210 -c 2 -a 0 -i 82 -k AGT
h -t 1.060000000 -s 2 -d -1 -p cbr -e 210 -c 2 -a 0 -i 82 -k AGT
+ -t 1.060000000 -s 3 -d -1 -p cbr -e 210 -c 2 -a 0 -i 83 -k AGT 
- -t 1.060000000 -s 3 -d -1 -p cbr -e 210 -c 2 -a 0 -i 83 -k AGT
h -t 1.060000000 -s 3 -d -1 -p cbr -e 210 -c 2 -a 0 -i 83 -k AGT
+ -t 1.060000000 -s 4 -d -1 -p cbr -e 210 -c 2 -a 0 -i 84 -k AGT 
- -t 1.060000000 -s 4 -d -1 -p cbr -e 210 -c 2 -a 0 -i 84 -k AGT
h -t 1.060000000 -s 4 -d -1 -p cbr -e 210 -c 2 -a 0 -i 84 -k AGT
+ -t 1.063750000 -s 0 -d -1 -p cbr -e 210 -c 2 -a 0 -i 85 -k AGT 
- -t 1.063750000 -s 0 -d -1 -p cbr -e 210 -c 2 -a 0 -i 85 -k AGT
h -t 1.063750000 -s 0 -d -1 -p cbr -e 210 -c 2 -a 0 -i 85 -k AGT
+ -t 1.063750000 -s 1 -d -1 -p cbr -e 210 -c 2 -a 0 -i 86 -k AGT 
- -t 1.063750000 -s 1 -d -1 -p cbr -e 210 -c 2 -a 0 -i 86 -k AGT
h -t 1.063750000 -s 1 -d -1 -p cbr -e 210 -c 2 -a 0 -i 86 -k AGT
+ -t 1.063750000 -s 2 -d -1 -p cbr -e 210 -c 2 -a 0 -i 87 -k AGT 
- -t 1.063750000 -s 2 -d -1 -p cbr -e 210 -c 2 -a 0 -i 87 -k AGT
h -t 1.063750000 -s 2 -d -1 -p cbr -e 210 -c 2 -a 0 -i 87 -k AGT
+ -t 1.063750000 -s 3 -d -1 -p cbr -e 210 -c 2 -a 0 -i 88 -k AGT 
- -t 1.063750000 -s 3 -d -1 -p cbr -e 210 -c 2 -a 0 -i 88 -k AGT
h -t 1.063750000 -s 3 -d -1 -p cbr -e 210 -c 2 -a 0 -i 88 -k AGT
+ -t 1.063750000 -s 4 -d -1 -p cbr -e 210 -c 2 -a 0 -i 89 -k AGT 
- -t 1.063750000 -s 4 -d -1 -p cbr -e 210 -c 2 -a 0 -i 89 -k AGT
h -t 1.063750000 -s 4 -d -1 -p cbr -e 210 -c 2 -a 0 -i 89 -k AGT
r -t 1.064025415 -s 5 -d -1 -p AODV -e 48 -c 2 -a 0 -i 0 -k MAC
r -t 1.064025665 -s 8 -d -1 -p AODV -e 48 -c 2 -a 0 -i 0 -k MAC
r -t 1.064025808 -s 7 -d -1 -p AODV -e 48 -c 2 -a 0 -i 0 -k MAC
r -t 1.064050415 -s 5 -d -1 -p AODV -e 48 -c 2 -a 0 -i 0 -k RTR
+ -t 1.064050415 -s 5 -d 0 -p AODV -e 44 -c 2 -a 0 -i 0 -k RTR 
- -t 1.064050415 -s 5 -d 0 -p AODV -e 44 -c 2 -a 0 -i 0 -k RTR
h -t 1.064050415 -s 5 -d 0 -p AODV -e 44 -c 2 -a 0 -i 0 -k RTR
r -t 1.064050665 -s 8 -d -1 -p AODV -e 48 -c 2 -a 0 -i 0 -k RTR
r -t 1.064050808 -s 7 -d -1 -p AODV -e 48 -c 2 -a 0 -i 0 -k RTR
+ -t 1.067180426 -s 7 -d -1 -p AODV -e 48 -c 2 -a 0 -i 0 -k RTR 
- -t 1.067180426 -s 7 -d -1 -p AODV -e 48 -c 2 -a 0 -i 0 -k RTR
h -t 1.067180426 -s 7 -d -1 -p AODV -e 48 -c 2 -a 0 -i 0 -k RTR
+ -t 1.067500000 -s 0 -d -1 -p cbr -e 210 -c 2 -a 0 -i 90 -k AGT 
- -t 1.067500000 -s 0 -d -1 -p cbr -e 210 -c 2 -a 0 -i 90 -k AGT
h -t 1.067500000 -s 0 -d -1 -p cbr -e 210 -c 2 -a 0 -i 90 -k AGT
+ -t 1.067500000 -s 1 -d -1 -p cbr -e 210 -c 2 -a 0 -i 91 -k AGT 
- -t 1.067500000 -s 1 -d -1 -p cbr -e 210 -c 2 -a 0 -i 91 -k AGT
h -t 1.067500000 -s 1 -d -1 -p cbr -e 210 -c 2 -a 0 -i 91 -k AGT
+ -t 1.067500000 -s 2 -d -1 -p cbr -e 210 -c 2 -a 0 -i 92 -k AGT 
- -t 1.067500000 -s 2 -d -1 -p cbr -e 210 -c 2 -a 0 -i 92 -k AGT
h -t 1.067500000 -s 2 -d -1 -p cbr -e 210 -c 2 -a 0 -i 92 -k AGT
+ -t 1.067500000 -s 3 -d -1 -p cbr -e 210 -c 2 -a 0 -i 93 -k AGT 
- -t 1.067500000 -s 3 -d -1 -p cbr -e 210 -c 2 -a 0 -i 93 -k AGT
h -t 1.067500000 -s 3 -d -1 -p cbr -e 210 -c 2 -a 0 -i 93 -k AGT
+ -t 1.067500000 -s 4 -d -1 -p cbr -e 210 -c 2 -a 0 -i 94 -k AGT 
- -t 1.067500000 -s 4 -d -1 -p cbr -e 210 -c 2 -a 0 -i 94 -k AGT
h -t 1.067500000 -s 4 -d -1 -p cbr -e 210 -c 2 -a 0 -i 94 -k AGT
+ -t 1.071250000 -s 0 -d -1 -p cbr -e 210 -c 2 -a 0 -i 95 -k AGT 
- -t 1.071250000 -s 0 -d -1 -p cbr -e 210 -c 2 -a 0 -i 95 -k AGT
h -t 1.071250000 -s 0 -d -1 -p cbr -e 210 -c 2 -a 0 -i 95 -k AGT
+ -t 1.071250000 -s 1 -d -1 -p cbr -e 210 -c 2 -a 0 -i 96 -k AGT 
- -t 1.071250000 -s 1 -d -1 -p cbr -e 210 -c 2 -a 0 -i 96 -k AGT
h -t 1.071250000 -s 1 -d -1 -p cbr -e 210 -c 2 -a 0 -i 96 -k AGT
+ -t 1.071250000 -s 2 -d -1 -p cbr -e 210 -c 2 -a 0 -i 97 -k AGT 
- -t 1.071250000 -s 2 -d -1 -p cbr -e 210 -c 2 -a 0 -i 97 -k AGT
h -t 1.071250000 -s 2 -d -1 -p cbr -e 210 -c 2 -a 0 -i 97 -k AGT
+ -t 1.071250000 -s 3 -d -1 -p cbr -e 210 -c 2 -a 0 -i 98 -k AGT 
- -t 1.071250000 -s 3 -d -1 -p cbr -e 210 -c 2 -a 0 -i 98 -k AGT
h -t 1.071250000 -s 3 -d -1 -p cbr -e 210 -c 2 -a 0 -i 98 -k AGT
+ -t 1.071250000 -s 4 -d -1 -p cbr -e 210 -c 2 -a 0 -i 99 -k AGT 
- -t 1.071250000 -s 4 -d -1 -p cbr -e 210 -c 2 -a 0 -i 99 -k AGT
h -t 1.071250000 -s 4 -d -1 -p cbr -e 210 -c 2 -a 0 -i 99 -k AGT
+ -t 1.072042219 -s 8 -d -1 -p AODV -e 48 -c 2 -a 0 -i 0 -k RTR 
- -t 1.072042219 -s 8 -d -1 -p AODV -e 48 -c 2 -a 0 -i 0 -k RTR
h -t 1.072042219 -s 8 -d -1 -p AODV -e 48 -c 2 -a 0 -i 0 -k RTR
+ -t 1.075000000 -s 0 -d -1 -p cbr -e 210 -c 2 -a 0 -i 100 -k AGT 
- -t 1.075000000 -s 0 -d -1 -p cbr -e 210 -c 2 -a 0 -i 100 -k AGT
h -t 1.075000000 -s 0 -d -1 -p cbr -e 210 -c 2 -a 0 -i 100 -k AGT
+ -t 1.075000000 -s 1 -d -1 -p cbr -e 210 -c 2 -a 0 -i 101 -k AGT 
- -t 1.075000000 -s 1 -d -1 -p cbr -e 210 -c 2 -a 0 -i 101 -k AGT
h -t 1.075000000 -s 1 -d -1 -p cbr -e 210 -c 2 -a 0 -i 101 -k AGT
+ -t 1.075000000 -s 2 -d -1 -p cbr -e 210 -c 2 -a 0 -i 102 -k AGT 
- -t 1.075000000 -s 2 -d -1 -p cbr -e 210 -c 2 -a 0 -i 102 -k AGT
h -t 1.075000000 -s 2 -d -1 -p cbr -e 210 -c 2 -a 0 -i 102 -k AGT
+ -t 1.075000000 -s 3 -d -1 -p cbr -e 210 -c 2 -a 0 -i 103 -k AGT 
- -t 1.075000000 -s 3 -d -1 -p cbr -e 210 -c 2 -a 0 -i 103 -k AGT
h -t 1.075000000 -s 3 -d -1 -p cbr -e 210 -c 2 -a 0 -i 103 -k AGT
+ -t 1.075000000 -s 4 -d -1 -p cbr -e 210 -c 2 -a 0 -i 104 -k AGT 
- -t 1.075000000 -s 4 -d -1 -p cbr -e 210 -c 2 -a 0 -i 104 -k AGT
h -t 1.075000000 -s 4 -d -1 -p cbr -e 210 -c 2 -a 0 -i 104 -k AGT
+ -t 1.078750000 -s 0 -d -1 -p cbr -e 210 -c 2 -a 0 -i 105 -k AGT 
- -t 1.078750000 -s 0 -d -1 -p cbr -e 210 -c 2 -a 0 -i 105 -k AGT
h -t 1.078750000 -s 0 -d -1 -p cbr -e 210 -c 2 -a 0 -i 105 -k AGT
+ -t 1.078750000 -s 1 -d -1 -p cbr -e 210 -c 2 -a 0 -i 106 -k AGT 
- -t 1.078750000 -s 1 -d -1 -p cbr -e 210 -c 2 -a 0 -i 106 -k AGT
h -t 1.078750000 -s 1 -d -1 -p cbr -e 210 -c 2 -a 0 -i 106 -k AGT
+ -t 1.078750000 -s 2 -d -1 -p cbr -e 210 -c 2 -a 0 -i 107 -k AGT 
- -t 1.078750000 -s 2 -d -1 -p cbr -e 210 -c 2 -a 0 -i 107 -k AGT
h -t 1.078750000 -s 2 -d -1 -p cbr -e 210 -c 2 -a 0 -i 107 -k AGT
+ -t 1.078750000 -s 3 -d -1 -p cbr -e 210 -c 2 -a 0 -i 108 -k AGT 
- -t 1.078750000 -s 3 -d -1 -p cbr -e 210 -c 2 -a 0 -i 108 -k AGT
h -t 1.078750000 -s 3 -d -1 -p cbr -e 210 -c 2 -a 0 -i 108 -k AGT
+ -t 1.078750000 -s 4 -d -1 -p cbr -e 210 -c 2 -a 0 -i 109 -k AGT 
- -t 1.078750000 -s 4 -d -1 -p cbr -e 210 -c 2 -a 0 -i 109 -k AGT
h -t 1.078750000 -s 4 -d -1 -p cbr -e 210 -c 2 -a 0 -i 109 -k AGT
+ -t 1.082500000 -s 0 -d -1 -p cbr -e 210 -c 2 -a 0 -i 110 -k AGT 
- -t 1.082500000 -s 0 -d -1 -p cbr -e 210 -c 2 -a 0 -i 110 -k AGT
h -t 1.082500000 -s 0 -d -1 -p cbr -e 210 -c 2 -a 0 -i 110 -k AGT
+ -t 1.082500000 -s 1 -d -1 -p cbr -e 210 -c 2 -a 0 -i 111 -k AGT 
- -t 1.082500000 -s 1 -d -1 -p cbr -e 210 -c 2 -a 0 -i 111 -k AGT
h -t 1.082500000 -s 1 -d -1 -p cbr -e 210 -c 2 -a 0 -i 111 -k AGT
+ -t 1.082500000 -s 2 -d -1 -p cbr -e 210 -c 2 -a 0 -i 112 -k AGT 
- -t 1.082500000 -s 2 -d -1 -p cbr -e 210 -c 2 -a 0 -i 112 -k AGT
h -t 1.082500000 -s 2 -d -1 -p cbr -e 210 -c 2 -a 0 -i 112 -k AGT
+ -t 1.082500000 -s 3 -d -1 -p cbr -e 210 -c 2 -a 0 -i 113 -k AGT 
- -t 1.082500000 -s 3 -d -1 -p cbr -e 210 -c 2 -a 0 -i 113 -k AGT
h -t 1.082500000 -s 3 -d -1 -p cbr -e 210 -c 2 -a 0 -i 113 -k AGT
+ -t 1.082500000 -s 4 -d -1 -p cbr -e 210 -c 2 -a 0 -i 114 -k AGT 
- -t 1.082500000 -s 4 -d -1 -p cbr -e 210 -c 2 -a 0 -i 114 -k AGT
h -t 1.082500000 -s 4 -d -1 -p cbr -e 210 -c 2 -a 0 -i 114 -k AGT
+ -t 1.086250000 -s 0 -d -1 -p cbr -e 210 -c 2 -a 0 -i 115 -k AGT 
- -t 1.086250000 -s 0 -d -1 -p cbr -e 210 -c 2 -a 0 -i 115 -k AGT
h -t 1.086250000 -s 0 -d -1 -p cbr -e 210 -c 2 -a 0 -i 115 -k AGT
+ -t 1.086250000 -s 1 -d -1 -p cbr -e 210 -c 2 -a 0 -i 116 -k AGT 
- -t 1.086250000 -s 1 -d -1 -p cbr -e 210 -c 2 -a 0 -i 116 -k AGT
h -t 1.086250000 -s 1 -d -1 -p cbr -e 210 -c 2 -a 0 -i 116 -k AGT
+ -t 1.086250000 -s 2 -d -1 -p cbr -e 210 -c 2 -a 0 -i 117 -k AGT 
- -t 1.086250000 -s 2 -d -1 -p cbr -e 210 -c 2 -a 0 -i 117 -k AGT
h -t 1.086250000 -s 2 -d -1 -p cbr -e 210 -c 2 -a 0 -i 117 -k AGT
+ -t 1.086250000 -s 3 -d -1 -p cbr -e 210 -c 2 -a 0 -i 118 -k AGT 
- -t 1.086250000 -s 3 -d -1 -p cbr -e 210 -c 2 -a 0 -i 118 -k AGT
h -t 1.086250000 -s 3 -d -1 -p cbr -e 210 -c 2 -a 0 -i 118 -k AGT
+ -t 1.086250000 -s 4 -d -1 -p cbr -e 210 -c 2 -a 0 -i 119 -k AGT 
- -t 1.086250000 -s 4 -d -1 -p cbr -e 210 -c 2 -a 0 -i 119 -k AGT
h -t 1.086250000 -s 4 -d -1 -p cbr -e 210 -c 2 -a 0 -i 119 -k AGT
+ -t 1.090000000 -s 0 -d -1 -p cbr -e 210 -c 2 -a 0 -i 120 -k AGT 
- -t 1.090000000 -s 0 -d -1 -p cbr -e 210 -c 2 -a 0 -i 120 -k AGT
h -t 1.090000000 -s 0 -d -1 -p cbr -e 210 -c 2 -a 0 -i 120 -k AGT
+ -t 1.090000000 -s 1 -d -1 -p cbr -e 210 -c 2 -a 0 -i 121 -k AGT 
- -t 1.090000000 -s 1 -d -1 -p cbr -e 210 -c 2 -a 0 -i 121 -k AGT
h -t 1.090000000 -s 1 -d -1 -p cbr -e 210 -c 2 -a 0 -i 121 -k AGT
+ -t 1.090000000 -s 2 -d -1 -p cbr -e 210 -c 2 -a 0 -i 122 -k AGT 
- -t 1.090000000 -s 2 -d -1 -p cbr -e 210 -c 2 -a 0 -i 122 -k AGT
h -t 1.090000000 -s 2 -d -1 -p cbr -e 210 -c 2 -a 0 -i 122 -k AGT
+ -t 1.090000000 -s 3 -d -1 -p cbr -e 210 -c 2 -a 0 -i 123 -k AGT 
- -t 1.090000000 -s 3 -d -1 -p cbr -e 210 -c 2 -a 0 -i 123 -k AGT
h -t 1.090000000 -s 3 -d -1 -p cbr -e 210 -c 2 -a 0 -i 123 -k AGT
+ -t 1.090000000 -s 4 -d -1 -p cbr -e 210 -c 2 -a 0 -i 124 -k AGT 
- -t 1.090000000 -s 4 -d -1 -p cbr -e 210 -c 2 -a 0 -i 124 -k AGT
h -t 1.090000000 -s 4 -d -1 -p cbr -e 210 -c 2 -a 0 -i 124 -k AGT
+ -t 1.093750000 -s 0 -d -1 -p cbr -e 210 -c 2 -a 0 -i 125 -k AGT 
- -t 1.093750000 -s 0 -d -1 -p cbr -e 210 -c 2 -a 0 -i 125 -k AGT
h -t 1.093750000 -s 0 -d -1 -p cbr -e 210 -c 2 -a 0 -i 125 -k AGT
+ -t 1.093750000 -s 1 -d -1 -p cbr -e 210 -c 2 -a 0 -i 126 -k AGT 
- -t 1.093750000 -s 1 -d -1 -p cbr -e 210 -c 2 -a 0 -i 126 -k AGT
h -t 1.093750000 -s 1 -d -1 -p cbr -e 210 -c 2 -a 0 -i 126 -k AGT
+ -t 1.093750000 -s 2 -d -1 -p cbr -e 210 -c 2 -a 0 -i 127 -k AGT 
- -t 1.093750000 -s 2 -d -1 -p cbr -e 210 -c 2 -a 0 -i 127 -k AGT
h -t 1.093750000 -s 2 -d -1 -p cbr -e 210 -c 2 -a 0 -i 127 -k AGT
+ -t 1.093750000 -s 3 -d -1 -p cbr -e 210 -c 2 -a 0 -i 128 -k AGT 
- -t 1.093750000 -s 3 -d -1 -p cbr -e 210 -c 2 -a 0 -i 128 -k AGT
h -t 1.093750000 -s 3 -d -1 -p cbr -e 210 -c 2 -a 0 -i 128 -k AGT
+ -t 1.093750000 -s 4 -d -1 -p cbr -e 210 -c 2 -a 0 -i 129 -k AGT 
- -t 1.093750000 -s 4 -d -1 -p cbr -e 210 -c 2 -a 0 -i 129 -k AGT
h -t 1.093750000 -s 4 -d -1 -p cbr -e 210 -c 2 -a 0 -i 129 -k AGT
+ -t 1.097500000 -s 0 -d -1 -p cbr -e 210 -c 2 -a 0 -i 130 -k AGT 
- -t 1.097500000 -s 0 -d -1 -p cbr -e 210 -c 2 -a 0 -i 130 -k AGT
h -t 1.097500000 -s 0 -d -1 -p cbr -e 210 -c 2 -a 0 -i 130 -k AGT
+ -t 1.097500000 -s 1 -d -1 -p cbr -e 210 -c 2 -a 0 -i 131 -k AGT 
- -t 1.097500000 -s 1 -d -1 -p cbr -e 210 -c 2 -a 0 -i 131 -k AGT
h -t 1.097500000 -s 1 -d -1 -p cbr -e 210 -c 2 -a 0 -i 131 -k AGT
+ -t 1.097500000 -s 2 -d -1 -p cbr -e 210 -c 2 -a 0 -i 132 -k AGT 
- -t 1.097500000 -s 2 -d -1 -p cbr -e 210 -c 2 -a 0 -i 132 -k AGT
h -t 1.097500000 -s 2 -d -1 -p cbr -e 210 -c 2 -a 0 -i 132 -k AGT
+ -t 1.097500000 -s 3 -d -1 -p cbr -e 210 -c 2 -a 0 -i 133 -k AGT 
- -t 1.097500000 -s 3 -d -1 -p cbr -e 210 -c 2 -a 0 -i 133 -k AGT
h -t 1.097500000 -s 3 -d -1 -p cbr -e 210 -c 2 -a 0 -i 133 -k AGT