n -t * -s 0  -x 0 -y 0 -Z 0 -z 20  -v circle -c black
n -t * -s 1  -x 0 -y 0 -Z 0 -z 20  -v circle -c black
n -t * -s 2  -x 0 -y 0 -Z 0 -z 20  -v circle -c black
n -t * -s 3  -x 0 -y 0 -Z 0 -z 20  -v circle -c black
n -t * -s 4  -x 0 -y 0 -Z 0 -z 20  -v circle -c black
n -t * -s 5  -x 0 -y 0 -Z 0 -z 20  -v circle -c black
n -t * -s 6  -x 0 -y 0 -Z 0 -z 20  -v circle -c black
n -t * -s 7  -x 0 -y 0 -Z 0 -z 20  -v circle -c black
n -t * -s 8  -x 0 -y 0 -Z 0 -z 20  -v circle -c black
n -t * -s 9  -x 0 -y 0 -Z 0 -z 20  -v circle -c black
V -t * -v 1.0a5 -a 0
W -t * -x 500 -y 500
A -t * -n 1 -p 0 -o 0x7fffffff -c 30 -a 1
A -t * -h 1 -m 1073741823 -s 0
n -t 0.000000 -s 0 -x 412.000000 -y 335.000000 -U 70.710678 -V 70.710678 -T 0.014142
n -t 0.000000 -s 1 -x 170.000000 -y 434.000000 -U 70.710678 -V 70.710678 -T 0.014142
n -t 0.000000 -s 2 -x 141.000000 -y 462.000000 -U 70.710678 -V 70.710678 -T 0.014142
n -t 0.000000 -s 3 -x 82.000000 -y 438.000000 -U 70.710678 -V 70.710678 -T 0.014142
n -t 0.000000 -s 4 -x 287.000000 -y 67.000000 -U 70.710678 -V 70.710678 -T 0.014142
n -t 0.000000 -s 5 -x 401.000000 -y 459.000000 -U 70.710678 -V 70.710678 -T 0.014142
n -t 0.000000 -s 6 -x 51.000000 -y 76.000000 -U 70.710678 -V 70.710678 -T 0.014142
n -t 0.000000 -s 7 -x 172.000000 -y 370.000000 -U 70.710678 -V 70.710678 -T 0.014142
n -t 0.000000 -s 8 -x 335.000000 -y 151.000000 -U 70.710678 -V 70.710678 -T 0.014142
n -t 0.000000 -s 9 -x 286.000000 -y 101.000000 -U 70.710678 -V 70.710678 -T 0.014142
+ -t 1.000000000 -s 0 -d -1 -p cbr -e 210 -c 2 -a 0 -i 0 -k AGT 
- -t 1.000000000 -s 0 -d -1 -p cbr -e 210 -c 2 -a 0 -i 0 -k AGT
h -t 1.000000000 -s 0 -d -1 -p cbr -e 210 -c 2 -a 0 -i 0 -k AGT
+ -t 1.000000000 -s 1 -d -1 -p cbr -e 210 -c 2 -a 0 -i 1 -k AGT 
- -t 1.000000000 -s 1 -d -1 -p cbr -e 210 -c 2 -a 0 -i 1 -k AGT
h -t 1.000000000 -s 1 -d -1 -p cbr -e 210 -c 2 -a 0 -i 1 -k AGT
+ -t 1.000000000 -s 2 -d -1 -p cbr -e 210 -c 2 -a 0 -i 2 -k AGT 
- -t 1.000000000 -s 2 -d -1 -p cbr -e 210 -c 2 -a 0 -i 2 -k AGT
h -t 1.000000000 -s 2 -d -1 -p cbr -e 210 -c 2 -a 0 -i 2 -k AGT
+ -t 1.000000000 -s 3 -d -1 -p cbr -e 210 -c 2 -a 0 -i 3 -k AGT 
- -t 1.000000000 -s 3 -d -1 -p cbr -e 210 -c 2 -a 0 -i 3 -k AGT
h -t 1.000000000 -s 3 -d -1 -p cbr -e 210 -c 2 -a 0 -i 3 -k AGT
+ -t 1.000000000 -s 4 -d -1 -p cbr -e 210 -c 2 -a 0 -i 4 -k AGT 
- -t 1.000000000 -s 4 -d -1 -p cbr -e 210 -c 2 -a 0 -i 4 -k AGT
h -t 1.000000000 -s 4 -d -1 -p cbr -e 210 -c 2 -a 0 -i 4 -k AGT
+ -t 1.000000000 -s 0 -d -1 -p AODV -e 48 -c 2 -a 0 -i 0 -k RTR 
- -t 1.000000000 -s 0 -d -1 -p AODV -e 48 -c 2 -a 0 -i 0 -k RTR
h -t 1.000000000 -s 0 -d -1 -p AODV -e 48 -c 2 -a 0 -i 0 -k RTR
+ -t 1.000000000 -s 1 -d -1 -p AODV -e 48 -c 2 -a 0 -i 0 -k RTR 
- -t 1.000000000 -s 1 -d -1 -p AODV -e 48 -c 2 -a 0 -i 0 -k RTR
h -t 1.000000000 -s 1 -d -1 -p AODV -e 48 -c 2 -a 0 -i 0 -k RTR
+ -t 1.000000000 -s 2 -d -1 -p AODV -e 48 -c 2 -a 0 -i 0 -k RTR 
- -t 1.000000000 -s 2 -d -1 -p AODV -e 48 -c 2 -a 0 -i 0 -k RTR
h -t 1.000000000 -s 2 -d -1 -p AODV -e 48 -c 2 -a 0 -i 0 -k RTR
+ -t 1.000000000 -s 3 -d -1 -p AODV -e 48 -c 2 -a 0 -i 0 -k RTR 
- -t 1.000000000 -s 3 -d -1 -p AODV -e 48 -c 2 -a 0 -i 0 -k RTR
h -t 1.000000000 -s 3 -d -1 -p AODV -e 48 -c 2 -a 0 -i 0 -k RTR
+ -t 1.000000000 -s 4 -d -1 -p AODV -e 48 -c 2 -a 0 -i 0 -k RTR 
- -t 1.000000000 -s 4 -d -1 -p AODV -e 48 -c 2 -a 0 -i 0 -k RTR
h -t 1.000000000 -s 4 -d -1 -p AODV -e 48 -c 2 -a 0 -i 0 -k RTR
+ -t 1.000115000 -s 1 -d -1 -p AODV -e 106 -c 2 -a 0 -i 0 -k MAC 
- -t 1.000115000 -s 1 -d -1 -p AODV -e 106 -c 2 -a 0 -i 0 -k MAC
h -t 1.000115000 -s 1 -d -1 -p AODV -e 106 -c 2 -a 0 -i 0 -k MAC
r -t 1.000963134 -s 2 -d -1 -p AODV -e 48 -c 2 -a 0 -i 0 -k MAC
r -t 1.000963213 -s 7 -d -1 -p AODV -e 48 -c 2 -a 0 -i 0 -k MAC
r -t 1.000963294 -s 3 -d -1 -p AODV -e 48 -c 2 -a 0 -i 0 -k MAC
r -t 1.000963774 -s 5 -d -1 -p AODV -e 48 -c 2 -a 0 -i 0 -k MAC
r -t 1.000988134 -s 2 -d -1 -p AODV -e 48 -c 2 -a 0 -i 0 -k RTR
r -t 1.000988213 -s 7 -d -1 -p AODV -e 48 -c 2 -a 0 -i 0 -k RTR
r -t 1.000988294 -s 3 -d -1 -p AODV -e 48 -c 2 -a 0 -i 0 -k RTR
r -t 1.000988774 -s 5 -d -1 -p AODV -e 48 -c 2 -a 0 -i 0 -k RTR
+ -t 1.000988774 -s 5 -d 1 -p AODV -e 44 -c 2 -a 0 -i 0 -k RTR 
- -t 1.000988774 -s 5 -d 1 -p AODV -e 44 -c 2 -a 0 -i 0 -k RTR
h -t 1.000988774 -s 5 -d 1 -p AODV -e 44 -c 2 -a 0 -i 0 -k RTR
+ -t 1.001273294 -s 3 -d -1 -p AODV -e 106 -c 2 -a 0 -i 0 -k MAC 
- -t 1.001273294 -s 3 -d -1 -p AODV -e 106 -c 2 -a 0 -i 0 -k MAC
h -t 1.001273294 -s 3 -d -1 -p AODV -e 106 -c 2 -a 0 -i 0 -k MAC
r -t 1.002121506 -s 2 -d -1 -p AODV -e 48 -c 2 -a 0 -i 0 -k MAC
r -t 1.002121587 -s 1 -d -1 -p AODV -e 48 -c 2 -a 0 -i 0 -k MAC
r -t 1.002121670 -s 7 -d -1 -p AODV -e 48 -c 2 -a 0 -i 0 -k MAC
r -t 1.002146506 -s 2 -d -1 -p AODV -e 48 -c 2 -a 0 -i 0 -k RTR
r -t 1.002146587 -s 1 -d -1 -p AODV -e 48 -c 2 -a 0 -i 0 -k RTR
r -t 1.002146670 -s 7 -d -1 -p AODV -e 48 -c 2 -a 0 -i 0 -k RTR
+ -t 1.002431506 -s 2 -d -1 -p AODV -e 106 -c 2 -a 0 -i 0 -k MAC 
- -t 1.002431506 -s 2 -d -1 -p AODV -e 106 -c 2 -a 0 -i 0 -k MAC
h -t 1.002431506 -s 2 -d -1 -p AODV -e 106 -c 2 -a 0 -i 0 -k MAC
+ -t 1.002574615 -s 7 -d -1 -p AODV -e 48 -c 2 -a 0 -i 0 -k RTR 
- -t 1.002574615 -s 7 -d -1 -p AODV -e 48 -c 2 -a 0 -i 0 -k RTR
h -t 1.002574615 -s 7 -d -1 -p AODV -e 48 -c 2 -a 0 -i 0 -k RTR
r -t 1.003279640 -s 1 -d -1 -p AODV -e 48 -c 2 -a 0 -i 0 -k MAC
r -t 1.003279718 -s 3 -d -1 -p AODV -e 48 -c 2 -a 0 -i 0 -k MAC
r -t 1.003279830 -s 7 -d -1 -p AODV -e 48 -c 2 -a 0 -i 0 -k MAC
r -t 1.003304640 -s 1 -d -1 -p AODV -e 48 -c 2 -a 0 -i 0 -k RTR
r -t 1.003304718 -s 3 -d -1 -p AODV -e 48 -c 2 -a 0 -i 0 -k RTR
r -t 1.003304830 -s 7 -d -1 -p AODV -e 48 -c 2 -a 0 -i 0 -k RTR
+ -t 1.003334311 -s 3 -d -1 -p AODV -e 48 -c 2 -a 0 -i 0 -k RTR 
- -t 1.003334311 -s 3 -d -1 -p AODV -e 48 -c 2 -a 0 -i 0 -k RTR
h -t 1.003334311 -s 3 -d -1 -p AODV -e 48 -c 2 -a 0 -i 0 -k RTR
+ -t 1.003489830 -s 7 -d -1 -p AODV -e 106 -c 2 -a 0 -i 0 -k MAC 
- -t 1.003489830 -s 7 -d -1 -p AODV -e 106 -c 2 -a 0 -i 0 -k MAC
h -t 1.003489830 -s 7 -d -1 -p AODV -e 106 -c 2 -a 0 -i 0 -k MAC
+ -t 1.003750000 -s 0 -d -1 -p cbr -e 210 -c 2 -a 0 -i 5 -k AGT 
- -t 1.003750000 -s 0 -d -1 -p cbr -e 210 -c 2 -a 0 -i 5 -k AGT
h -t 1.003750000 -s 0 -d -1 -p cbr -e 210 -c 2 -a 0 -i 5 -k AGT
+ -t 1.003750000 -s 1 -d -1 -p cbr -e 210 -c 2 -a 0 -i 6 -k AGT 
- -t 1.003750000 -s 1 -d -1 -p cbr -e 210 -c 2 -a 0 -i 6 -k AGT
h -t 1.003750000 -s 1 -d -1 -p cbr -e 210 -c 2 -a 0 -i 6 -k AGT
+ -t 1.003750000 -s 2 -d -1 -p cbr -e 210 -c 2 -a 0 -i 7 -k AGT 
- -t 1.003750000 -s 2 -d -1 -p cbr -e 210 -c 2 -a 0 -i 7 -k AGT
h -t 1.003750000 -s 2 -d -1 -p cbr -e 210 -c 2 -a 0 -i 7 -k AGT
+ -t 1.003750000 -s 3 -d -1 -p cbr -e 210 -c 2 -a 0 -i 8 -k AGT 
- -t 1.003750000 -s 3 -d -1 -p cbr -e 210 -c 2 -a 0 -i 8 -k AGT
h -t 1.003750000 -s 3 -d -1 -p cbr -e 210 -c 2 -a 0 -i 8 -k AGT
+ -t 1.003750000 -s 4 -d -1 -p cbr -e 210 -c 2 -a 0 -i 9 -k AGT 
- -t 1.003750000 -s 4 -d -1 -p cbr -e 210 -c 2 -a 0 -i 9 -k AGT
h -t 1.003750000 -s 4 -d -1 -p cbr -e 210 -c 2 -a 0 -i 9 -k AGT
+ -t 1.003788041 -s 1 -d -1 -p AODV -e 48 -c 2 -a 0 -i 0 -k RTR 
- -t 1.003788041 -s 1 -d -1 -p AODV -e 48 -c 2 -a 0 -i 0 -k RTR
h -t 1.003788041 -s 1 -d -1 -p AODV -e 48 -c 2 -a 0 -i 0 -k RTR
+ -t 1.004117752 -s 2 -d -1 -p AODV -e 48 -c 2 -a 0 -i 0 -k RTR 
- -t 1.004117752 -s 2 -d -1 -p AODV -e 48 -c 2 -a 0 -i 0 -k RTR
h -t 1.004117752 -s 2 -d -1 -p AODV -e 48 -c 2 -a 0 -i 0 -k RTR
r -t 1.004338043 -s 1 -d -1 -p AODV -e 48 -c 2 -a 0 -i 0 -k MAC
r -t 1.004338153 -s 2 -d -1 -p AODV -e 48 -c 2 -a 0 -i 0 -k MAC
r -t 1.004338206 -s 3 -d -1 -p AODV -e 48 -c 2 -a 0 -i 0 -k MAC
r -t 1.004338638 -s 0 -d -1 -p AODV -e 48 -c 2 -a 0 -i 0 -k MAC
r -t 1.004338649 -s 5 -d -1 -p AODV -e 48 -c 2 -a 0 -i 0 -k MAC
r -t 1.004363043 -s 1 -d -1 -p AODV -e 48 -c 2 -a 0 -i 0 -k RTR
r -t 1.004363153 -s 2 -d -1 -p AODV -e 48 -c 2 -a 0 -i 0 -k RTR
r -t 1.004363206 -s 3 -d -1 -p AODV -e 48 -c 2 -a 0 -i 0 -k RTR
r -t 1.004363638 -s 0 -d -1 -p AODV -e 48 -c 2 -a 0 -i 0 -k RTR
r -t 1.004363649 -s 5 -d -1 -p AODV -e 48 -c 2 -a 0 -i 0 -k RTR
+ -t 1.004528649 -s 5 -d -1 -p ARP -e 86 -c 2 -a 0 -i 0 -k MAC 
- -t 1.004528649 -s 5 -d -1 -p ARP -e 86 -c 2 -a 0 -i 0 -k MAC
h -t 1.004528649 -s 5 -d -1 -p ARP -e 86 -c 2 -a 0 -i 0 -k MAC
+ -t 1.005052882 -s 7 -d -1 -p AODV -e 48 -c 2 -a 0 -i 0 -k RTR 
- -t 1.005052882 -s 7 -d -1 -p AODV -e 48 -c 2 -a 0 -i 0 -k RTR
h -t 1.005052882 -s 7 -d -1 -p AODV -e 48 -c 2 -a 0 -i 0 -k RTR
r -t 1.005217063 -s 0 -d -1 -p ARP -e 28 -c 2 -a 0 -i 0 -k MAC
r -t 1.005217423 -s 1 -d -1 -p ARP -e 28 -c 2 -a 0 -i 0 -k MAC
r -t 1.005217467 -s 7 -d -1 -p ARP -e 28 -c 2 -a 0 -i 0 -k MAC
+ -t 1.005327467 -s 7 -d -1 -p AODV -e 106 -c 2 -a 0 -i 0 -k MAC 
- -t 1.005327467 -s 7 -d -1 -p AODV -e 106 -c 2 -a 0 -i 0 -k MAC
h -t 1.005327467 -s 7 -d -1 -p AODV -e 106 -c 2 -a 0 -i 0 -k MAC
r -t 1.006175681 -s 1 -d -1 -p AODV -e 48 -c 2 -a 0 -i 0 -k MAC
r -t 1.006175791 -s 2 -d -1 -p AODV -e 48 -c 2 -a 0 -i 0 -k MAC
r -t 1.006175843 -s 3 -d -1 -p AODV -e 48 -c 2 -a 0 -i 0 -k MAC
r -t 1.006176276 -s 0 -d -1 -p AODV -e 48 -c 2 -a 0 -i 0 -k MAC
r -t 1.006176286 -s 5 -d -1 -p AODV -e 48 -c 2 -a 0 -i 0 -k MAC
r -t 1.006200681 -s 1 -d -1 -p AODV -e 48 -c 2 -a 0 -i 0 -k RTR
r -t 1.006200791 -s 2 -d -1 -p AODV -e 48 -c 2 -a 0 -i 0 -k RTR
r -t 1.006200843 -s 3 -d -1 -p AODV -e 48 -c 2 -a 0 -i 0 -k RTR
r -t 1.006201276 -s 0 -d -1 -p AODV -e 48 -c 2 -a 0 -i 0 -k RTR
r -t 1.006201286 -s 5 -d -1 -p AODV -e 48 -c 2 -a 0 -i 0 -k RTR
+ -t 1.006285791 -s 2 -d -1 -p AODV -e 106 -c 2 -a 0 -i 0 -k MAC 
- -t 1.006285791 -s 2 -d -1 -p AODV -e 106 -c 2 -a 0 -i 0 -k MAC
h -t 1.006285791 -s 2 -d -1 -p AODV -e 106 -c 2 -a 0 -i 0 -k MAC
+ -t 1.006944518 -s 0 -d -1 -p AODV -e 48 -c 2 -a 0 -i 0 -k RTR 
- -t 1.006944518 -s 0 -d -1 -p AODV -e 48 -c 2 -a 0 -i 0 -k RTR
h -t 1.006944518 -s 0 -d -1 -p AODV -e 48 -c 2 -a 0 -i 0 -k RTR
r -t 1.007133925 -s 1 -d -1 -p AODV -e 48 -c 2 -a 0 -i 0 -k MAC
r -t 1.007134003 -s 3 -d -1 -p AODV -e 48 -c 2 -a 0 -i 0 -k MAC
r -t 1.007134115 -s 7 -d -1 -p AODV -e 48 -c 2 -a 0 -i 0 -k MAC
r -t 1.007158925 -s 1 -d -1 -p AODV -e 48 -c 2 -a 0 -i 0 -k RTR
r -t 1.007159003 -s 3 -d -1 -p AODV -e 48 -c 2 -a 0 -i 0 -k RTR
r -t 1.007159115 -s 7 -d -1 -p AODV -e 48 -c 2 -a 0 -i 0 -k RTR
+ -t 1.007243925 -s 1 -d -1 -p AODV -e 106 -c 2 -a 0 -i 0 -k MAC 
- -t 1.007243925 -s 1 -d -1 -p AODV -e 106 -c 2 -a 0 -i 0 -k MAC
h -t 1.007243925 -s 1 -d -1 -p AODV -e 106 -c 2 -a 0 -i 0 -k MAC
+ -t 1.007244003 -s 3 -d -1 -p AODV -e 106 -c 2 -a 0 -i 0 -k MAC 
- -t 1.007244003 -s 3 -d -1 -p AODV -e 106 -c 2 -a 0 -i 0 -k MAC
h -t 1.007244003 -s 3 -d -1 -p AODV -e 106 -c 2 -a 0 -i 0 -k MAC
d -t 1.007244216 -s 2 -d -1 -p AODV -e 106 -c 2 -a 0 -i 0 -k MAC
d -t 1.007244379 -s 7 -d -1 -p AODV -e 106 -c 2 -a 0 -i 0 -k MAC
d -t 1.007245069 -s 5 -d -1 -p AODV -e 106 -c 2 -a 0 -i 0 -k MAC
+ -t 1.007500000 -s 0 -d -1 -p cbr -e 210 -c 2 -a 0 -i 10 -k AGT 
- -t 1.007500000 -s 0 -d -1 -p cbr -e 210 -c 2 -a 0 -i 10 -k AGT
h -t 1.007500000 -s 0 -d -1 -p cbr -e 210 -c 2 -a 0 -i 10 -k AGT
+ -t 1.007500000 -s 1 -d -1 -p cbr -e 210 -c 2 -a 0 -i 11 -k AGT 
- -t 1.007500000 -s 1 -d -1 -p cbr -e 210 -c 2 -a 0 -i 11 -k AGT
h -t 1.007500000 -s 1 -d -1 -p cbr -e 210 -c 2 -a 0 -i 11 -k AGT
+ -t 1.007500000 -s 2 -d -1 -p cbr -e 210 -c 2 -a 0 -i 12 -k AGT 
- -t 1.007500000 -s 2 -d -1 -p cbr -e 210 -c 2 -a 0 -i 12 -k AGT
h -t 1.007500000 -s 2 -d -1 -p cbr -e 210 -c 2 -a 0 -i 12 -k AGT
+ -t 1.007500000 -s 3 -d -1 -p cbr -e 210 -c 2 -a 0 -i 13 -k AGT 
- -t 1.007500000 -s 3 -d -1 -p cbr -e 210 -c 2 -a 0 -i 13 -k AGT
h -t 1.007500000 -s 3 -d -1 -p cbr -e 210 -c 2 -a 0 -i 13 -k AGT
+ -t 1.007500000 -s 4 -d -1 -p cbr -e 210 -c 2 -a 0 -i 14 -k AGT 
- -t 1.007500000 -s 4 -d -1 -p cbr -e 210 -c 2 -a 0 -i 14 -k AGT
h -t 1.007500000 -s 4 -d -1 -p cbr -e 210 -c 2 -a 0 -i 14 -k AGT
+ -t 1.007541286 -s 3 -d -1 -p AODV -e 48 -c 2 -a 0 -i 0 -k RTR 
- -t 1.007541286 -s 3 -d -1 -p AODV -e 48 -c 2 -a 0 -i 0 -k RTR
h -t 1.007541286 -s 3 -d -1 -p AODV -e 48 -c 2 -a 0 -i 0 -k RTR
d -t 1.008092216 -s 2 -d -1 -p AODV -e 106 -c 2 -a 0 -i 0 -k MAC
d -t 1.008092379 -s 7 -d -1 -p AODV -e 106 -c 2 -a 0 -i 0 -k MAC
+ -t 1.008450505 -s 5 -d -1 -p AODV -e 48 -c 2 -a 0 -i 0 -k RTR 
- -t 1.008450505 -s 5 -d -1 -p AODV -e 48 -c 2 -a 0 -i 0 -k RTR
h -t 1.008450505 -s 5 -d -1 -p AODV -e 48 -c 2 -a 0 -i 0 -k RTR
+ -t 1.008627069 -s 5 -d -1 -p AODV -e 106 -c 2 -a 0 -i 0 -k MAC 
- -t 1.008627069 -s 5 -d -1 -p AODV -e 106 -c 2 -a 0 -i 0 -k MAC
h -t 1.008627069 -s 5 -d -1 -p AODV -e 106 -c 2 -a 0 -i 0 -k MAC
+ -t 1.009152974 -s 7 -d -1 -p AODV -e 48 -c 2 -a 0 -i 0 -k RTR 
- -t 1.009152974 -s 7 -d -1 -p AODV -e 48 -c 2 -a 0 -i 0 -k RTR
h -t 1.009152974 -s 7 -d -1 -p AODV -e 48 -c 2 -a 0 -i 0 -k RTR
r -t 1.009475484 -s 0 -d -1 -p AODV -e 48 -c 2 -a 0 -i 0 -k MAC
r -t 1.009475844 -s 1 -d -1 -p AODV -e 48 -c 2 -a 0 -i 0 -k MAC
r -t 1.009475888 -s 7 -d -1 -p AODV -e 48 -c 2 -a 0 -i 0 -k MAC
r -t 1.009500484 -s 0 -d -1 -p AODV -e 48 -c 2 -a 0 -i 0 -k RTR
r -t 1.009500844 -s 1 -d -1 -p AODV -e 48 -c 2 -a 0 -i 0 -k RTR
r -t 1.009500888 -s 7 -d -1 -p AODV -e 48 -c 2 -a 0 -i 0 -k RTR
+ -t 1.009565484 -s 0 -d -1 -p AODV -e 106 -c 2 -a 0 -i 0 -k MAC 
- -t 1.009565484 -s 0 -d -1 -p AODV -e 106 -c 2 -a 0 -i 0 -k MAC
h -t 1.009565484 -s 0 -d -1 -p AODV -e 106 -c 2 -a 0 -i 0 -k MAC
r -t 1.010413899 -s 5 -d -1 -p AODV -e 48 -c 2 -a 0 -i 0 -k MAC
r -t 1.010414149 -s 8 -d -1 -p AODV -e 48 -c 2 -a 0 -i 0 -k MAC
r -t 1.010414292 -s 7 -d -1 -p AODV -e 48 -c 2 -a 0 -i 0 -k MAC
r -t 1.010438899 -s 5 -d -1 -p AODV -e 48 -c 2 -a 0 -i 0 -k RTR
+ -t 1.010438899 -s 5 -d 0 -p AODV -e 44 -c 2 -a 0 -i 0 -k RTR 
- -t 1.010438899 -s 5 -d 0 -p AODV -e 44 -c 2 -a 0 -i 0 -k RTR
h -t 1.010438899 -s 5 -d 0 -p AODV -e 44 -c 2 -a 0 -i 0 -k RTR
r -t 1.010439149 -s 8 -d -1 -p AODV -e 48 -c 2 -a 0 -i 0 -k RTR
r -t 1.010439292 -s 7 -d -1 -p AODV -e 48 -c 2 -a 0 -i 0 -k RTR
+ -t 1.010509741 -s 2 -d -1 -p AODV -e 48 -c 2 -a 0 -i 0 -k RTR 
- -t 1.010509741 -s 2 -d -1 -p AODV -e 48 -c 2 -a 0 -i 0 -k RTR
h -t 1.010509741 -s 2 -d -1 -p AODV -e 48 -c 2 -a 0 -i 0 -k RTR
+ -t 1.010573899 -s 5 -d -1 -p ARP -e 86 -c 2 -a 0 -i 0 -k MAC 
- -t 1.010573899 -s 5 -d -1 -p ARP -e 86 -c 2 -a 0 -i 0 -k MAC
h -t 1.010573899 -s 5 -d -1 -p ARP -e 86 -c 2 -a 0 -i 0 -k MAC
+ -t 1.011250000 -s 0 -d -1 -p cbr -e 210 -c 2 -a 0 -i 15 -k AGT 
- -t 1.011250000 -s 0 -d -1 -p cbr -e 210 -c 2 -a 0 -i 15 -k AGT
h -t 1.011250000 -s 0 -d -1 -p cbr -e 210 -c 2 -a 0 -i 15 -k AGT
+ -t 1.011250000 -s 1 -d -1 -p cbr -e 210 -c 2 -a 0 -i 16 -k AGT 
- -t 1.011250000 -s 1 -d -1 -p cbr -e 210 -c 2 -a 0 -i 16 -k AGT
h -t 1.011250000 -s 1 -d -1 -p cbr -e 210 -c 2 -a 0 -i 16 -k AGT
+ -t 1.011250000 -s 2 -d -1 -p cbr -e 210 -c 2 -a 0 -i 17 -k AGT 
- -t 1.011250000 -s 2 -d -1 -p cbr -e 210 -c 2 -a 0 -i 17 -k AGT
h -t 1.011250000 -s 2 -d -1 -p cbr -e 210 -c 2 -a 0 -i 17 -k AGT
+ -t 1.011250000 -s 3 -d -1 -p cbr -e 210 -c 2 -a 0 -i 18 -k AGT 
- -t 1.011250000 -s 3 -d -1 -p cbr -e 210 -c 2 -a 0 -i 18 -k AGT
h -t 1.011250000 -s 3 -d -1 -p cbr -e 210 -c 2 -a 0 -i 18 -k AGT
+ -t 1.011250000 -s 4 -d -1 -p cbr -e 210 -c 2 -a 0 -i 19 -k AGT 
- -t 1.011250000 -s 4 -d -1 -p cbr -e 210 -c 2 -a 0 -i 19 -k AGT
h -t 1.011250000 -s 4 -d -1 -p cbr -e 210 -c 2 -a 0 -i 19 -k AGT
r -t 1.011262314 -s 0 -d -1 -p ARP -e 28 -c 2 -a 0 -i 0 -k MAC
r -t 1.011262673 -s 1 -d -1 -p ARP -e 28 -c 2 -a 0 -i 0 -k MAC
r -t 1.011262718 -s 7 -d -1 -p ARP -e 28 -c 2 -a 0 -i 0 -k MAC
+ -t 1.011372718 -s 7 -d -1 -p AODV -e 106 -c 2 -a 0 -i 0 -k MAC 
- -t 1.011372718 -s 7 -d -1 -p AODV -e 106 -c 2 -a 0 -i 0 -k MAC
h -t 1.011372718 -s 7 -d -1 -p AODV -e 106 -c 2 -a 0 -i 0 -k MAC
+ -t 1.011901917 -s 1 -d -1 -p AODV -e 48 -c 2 -a 0 -i 0 -k RTR 
- -t 1.011901917 -s 1 -d -1 -p AODV -e 48 -c 2 -a 0 -i 0 -k RTR
h -t 1.011901917 -s 1 -d -1 -p AODV -e 48 -c 2 -a 0 -i 0 -k RTR
r -t 1.012220931 -s 1 -d -1 -p AODV -e 48 -c 2 -a 0 -i 0 -k MAC
r -t 1.012221042 -s 2 -d -1 -p AODV -e 48 -c 2 -a 0 -i 0 -k MAC
r -t 1.012221094 -s 3 -d -1 -p AODV -e 48 -c 2 -a 0 -i 0 -k MAC
r -t 1.012221526 -s 0 -d -1 -p AODV -e 48 -c 2 -a 0 -i 0 -k MAC
r -t 1.012221537 -s 5 -d -1 -p AODV -e 48 -c 2 -a 0 -i 0 -k MAC
r -t 1.012245931 -s 1 -d -1 -p AODV -e 48 -c 2 -a 0 -i 0 -k RTR
r -t 1.012246042 -s 2 -d -1 -p AODV -e 48 -c 2 -a 0 -i 0 -k RTR
r -t 1.012246094 -s 3 -d -1 -p AODV -e 48 -c 2 -a 0 -i 0 -k RTR
r -t 1.012246526 -s 0 -d -1 -p AODV -e 48 -c 2 -a 0 -i 0 -k RTR
r -t 1.012246537 -s 5 -d -1 -p AODV -e 48 -c 2 -a 0 -i 0 -k RTR
+ -t 1.012411526 -s 0 -d -1 -p AODV -e 106 -c 2 -a 0 -i 0 -k MAC 
- -t 1.012411526 -s 0 -d -1 -p AODV -e 106 -c 2 -a 0 -i 0 -k MAC
h -t 1.012411526 -s 0 -d -1 -p AODV -e 106 -c 2 -a 0 -i 0 -k MAC
+ -t 1.013124344 -s 0 -d -1 -p AODV -e 48 -c 2 -a 0 -i 0 -k RTR 
- -t 1.013124344 -s 0 -d -1 -p AODV -e 48 -c 2 -a 0 -i 0 -k RTR
h -t 1.013124344 -s 0 -d -1 -p AODV -e 48 -c 2 -a 0 -i 0 -k RTR
r -t 1.013259941 -s 5 -d -1 -p AODV -e 48 -c 2 -a 0 -i 0 -k MAC
r -t 1.013260191 -s 8 -d -1 -p AODV -e 48 -c 2 -a 0 -i 0 -k MAC
r -t 1.013260335 -s 7 -d -1 -p AODV -e 48 -c 2 -a 0 -i 0 -k MAC
r -t 1.013284941 -s 5 -d -1 -p AODV -e 48 -c 2 -a 0 -i 0 -k RTR
r -t 1.013285191 -s 8 -d -1 -p AODV -e 48 -c 2 -a 0 -i 0 -k RTR
r -t 1.013285335 -s 7 -d -1 -p AODV -e 48 -c 2 -a 0 -i 0 -k RTR
+ -t 1.013754524 -s 2 -d -1 -p AODV -e 106 -c 2 -a 0 -i 0 -k MAC 
- -t 1.013754524 -s 2 -d -1 -p AODV -e 106 -c 2 -a 0 -i 0 -k MAC
h -t 1.013754524 -s 2 -d -1 -p AODV -e 106 -c 2 -a 0 -i 0 -k MAC
+ -t 1.014120179 -s 0 -d -1 -p AODV -e 48 -c 2 -a 0 -i 0 -k RTR 
- -t 1.014120179 -s 0 -d -1 -p AODV -e 48 -c 2 -a 0 -i 0 -k RTR
h -t 1.014120179 -s 0 -d -1 -p AODV -e 48 -c 2 -a 0 -i 0 -k RTR
r -t 1.014602658 -s 1 -d -1 -p AODV -e 48 -c 2 -a 0 -i 0 -k MAC
r -t 1.014602736 -s 3 -d -1 -p AODV -e 48 -c 2 -a 0 -i 0 -k MAC
r -t 1.014602848 -s 7 -d -1 -p AODV -e 48 -c 2 -a 0 -i 0 -k MAC
r -t 1.014627658 -s 1 -d -1 -p AODV -e 48 -c 2 -a 0 -i 0 -k RTR
r -t 1.014627736 -s 3 -d -1 -p AODV -e 48 -c 2 -a 0 -i 0 -k RTR
r -t 1.014627848 -s 7 -d -1 -p AODV -e 48 -c 2 -a 0 -i 0 -k RTR
+ -t 1.014672736 -s 3 -d -1 -p AODV -e 106 -c 2 -a 0 -i 0 -k MAC 
- -t 1.014672736 -s 3 -d -1 -p AODV -e 106 -c 2 -a 0 -i 0 -k MAC
h -t 1.014672736 -s 3 -d -1 -p AODV -e 106 -c 2 -a 0 -i 0 -k MAC
+ -t 1.014821959 -s 5 -d -1 -p AODV -e 48 -c 2 -a 0 -i 0 -k RTR 
- -t 1.014821959 -s 5 -d -1 -p AODV -e 48 -c 2 -a 0 -i 0 -k RTR
h -t 1.014821959 -s 5 -d -1 -p AODV -e 48 -c 2 -a 0 -i 0 -k RTR
+ -t 1.015000000 -s 0 -d -1 -p cbr -e 210 -c 2 -a 0 -i 20 -k AGT 
- -t 1.015000000 -s 0 -d -1 -p cbr -e 210 -c 2 -a 0 -i 20 -k AGT
h -t 1.015000000 -s 0 -d -1 -p cbr -e 210 -c 2 -a 0 -i 20 -k AGT
+ -t 1.015000000 -s 1 -d -1 -p cbr -e 210 -c 2 -a 0 -i 21 -k AGT 
- -t 1.015000000 -s 1 -d -1 -p cbr -e 210 -c 2 -a 0 -i 21 -k AGT
h -t 1.015000000 -s 1 -d -1 -p cbr -e 210 -c 2 -a 0 -i 21 -k AGT
+ -t 1.015000000 -s 2 -d -1 -p cbr -e 210 -c 2 -a 0 -i 22 -k AGT 
- -t 1.015000000 -s 2 -d -1 -p cbr -e 210 -c 2 -a 0 -i 22 -k AGT
h -t 1.015000000 -s 2 -d -1 -p cbr -e 210 -c 2 -a 0 -i 22 -k AGT
+ -t 1.015000000 -s 3 -d -1 -p cbr -e 210 -c 2 -a 0 -i 23 -k AGT 
- -t 1.015000000 -s 3 -d -1 -p cbr -e 210 -c 2 -a 0 -i 23 -k AGT
h -t 1.015000000 -s 3 -d -1 -p cbr -e 210 -c 2 -a 0 -i 23 -k AGT
+ -t 1.015000000 -s 4 -d -1 -p cbr -e 210 -c 2 -a 0 -i 24 -k AGT 
- -t 1.015000000 -s 4 -d -1 -p cbr -e 210 -c 2 -a 0 -i 24 -k AGT
h -t 1.015000000 -s 4 -d -1 -p cbr -e 210 -c 2 -a 0 -i 24 -k AGT
r -t 1.015520949 -s 2 -d -1 -p AODV -e 48 -c 2 -a 0 -i 0 -k MAC
r -t 1.015521030 -s 1 -d -1 -p AODV -e 48 -c 2 -a 0 -i 0 -k MAC
r -t 1.015521112 -s 7 -d -1 -p AODV -e 48 -c 2 -a 0 -i 0 -k MAC
r -t 1.015545949 -s 2 -d -1 -p AODV -e 48 -c 2 -a 0 -i 0 -k RTR
r -t 1.015546030 -s 1 -d -1 -p AODV -e 48 -c 2 -a 0 -i 0 -k RTR
r -t 1.015546112 -s 7 -d -1 -p AODV -e 48 -c 2 -a 0 -i 0 -k RTR
+ -t 1.015651030 -s 1 -d -1 -p RTS -e 44 -c 2 -a 0 -i 0 -k MAC 
- -t 1.015651030 -s 1 -d -1 -p RTS -e 44 -c 2 -a 0 -i 0 -k MAC
h -t 1.015651030 -s 1 -d -1 -p RTS -e 44 -c 2 -a 0 -i 0 -k MAC
r -t 1.016003804 -s 5 -d -1 -p RTS -e 44 -c 2 -a 0 -i 0 -k MAC
+ -t 1.016013804 -s 5 -d -1 -p CTS -e 38 -c 2 -a 0 -i 0 -k MAC 
- -t 1.016013804 -s 5 -d -1 -p CTS -e 38 -c 2 -a 0 -i 0 -k MAC
h -t 1.016013804 -s 5 -d -1 -p CTS -e 38 -c 2 -a 0 -i 0 -k MAC
r -t 1.016318579 -s 1 -d -1 -p CTS -e 38 -c 2 -a 0 -i 0 -k MAC
+ -t 1.016328579 -s 1 -d -1 -p ARP -e 86 -c 2 -a 0 -i 0 -k MAC 
- -t 1.016328579 -s 1 -d -1 -p ARP -e 86 -c 2 -a 0 -i 0 -k MAC
h -t 1.016328579 -s 1 -d -1 -p ARP -e 86 -c 2 -a 0 -i 0 -k MAC
r -t 1.017017353 -s 5 -d -1 -p ARP -e 28 -c 2 -a 0 -i 0 -k MAC
+ -t 1.017027353 -s 5 -d -1 -p ACK -e 38 -c 2 -a 0 -i 0 -k MAC 
- -t 1.017027353 -s 5 -d -1 -p ACK -e 38 -c 2 -a 0 -i 0 -k MAC
h -t 1.017027353 -s 5 -d -1 -p ACK -e 38 -c 2 -a 0 -i 0 -k MAC
r -t 1.017332128 -s 1 -d -1 -p ACK -e 38 -c 2 -a 0 -i 0 -k MAC
+ -t 1.017502128 -s 1 -d -1 -p AODV -e 106 -c 2 -a 0 -i 0 -k MAC 
- -t 1.017502128 -s 1 -d -1 -p AODV -e 106 -c 2 -a 0 -i 0 -k MAC
h -t 1.017502128 -s 1 -d -1 -p AODV -e 106 -c 2 -a 0 -i 0 -k MAC
+ -t 1.018061468 -s 8 -d -1 -p AODV -e 48 -c 2 -a 0 -i 0 -k RTR 
- -t 1.018061468 -s 8 -d -1 -p AODV -e 48 -c 2 -a 0 -i 0 -k RTR
h -t 1.018061468 -s 8 -d -1 -p AODV -e 48 -c 2 -a 0 -i 0 -k RTR
r -t 1.018350262 -s 2 -d -1 -p AODV -e 48 -c 2 -a 0 -i 0 -k MAC
r -t 1.018350341 -s 7 -d -1 -p AODV -e 48 -c 2 -a 0 -i 0 -k MAC
r -t 1.018350422 -s 3 -d -1 -p AODV -e 48 -c 2 -a 0 -i 0 -k MAC
r -t 1.018350902 -s 5 -d -1 -p AODV -e 48 -c 2 -a 0 -i 0 -k MAC
r -t 1.018375262 -s 2 -d -1 -p AODV -e 48 -c 2 -a 0 -i 0 -k RTR
r -t 1.018375341 -s 7 -d -1 -p AODV -e 48 -c 2 -a 0 -i 0 -k RTR
r -t 1.018375422 -s 3 -d -1 -p AODV -e 48 -c 2 -a 0 -i 0 -k RTR
r -t 1.018375902 -s 5 -d -1 -p AODV -e 48 -c 2 -a 0 -i 0 -k RTR
+ -t 1.018750000 -s 0 -d -1 -p cbr -e 210 -c 2 -a 0 -i 25 -k AGT 
- -t 1.018750000 -s 0 -d -1 -p cbr -e 210 -c 2 -a 0 -i 25 -k AGT
h -t 1.018750000 -s 0 -d -1 -p cbr -e 210 -c 2 -a 0 -i 25 -k AGT
+ -t 1.018750000 -s 1 -d -1 -p cbr -e 210 -c 2 -a 0 -i 26 -k AGT 
- -t 1.018750000 -s 1 -d -1 -p cbr -e 210 -c 2 -a 0 -i 26 -k AGT
h -t 1.018750000 -s 1 -d -1 -p cbr -e 210 -c 2 -a 0 -i 26 -k AGT
+ -t 1.018750000 -s 2 -d -1 -p cbr -e 210 -c 2 -a 0 -i 27 -k AGT 
- -t 1.018750000 -s 2 -d -1 -p cbr -e 210 -c 2 -a 0 -i 27 -k AGT
h -t 1.018750000 -s 2 -d -1 -p cbr -e 210 -c 2 -a 0 -i 27 -k AGT
+ -t 1.018750000 -s 3 -d -1 -p cbr -e 210 -c 2 -a 0 -i 28 -k AGT 
- -t 1.018750000 -s 3 -d -1 -p cbr -e 210 -c 2 -a 0 -i 28 -k AGT
h -t 1.018750000 -s 3 -d -1 -p cbr -e 210 -c 2 -a 0 -i 28 -k AGT
+ -t 1.018750000 -s 4 -d -1 -p cbr -e 210 -c 2 -a 0 -i 29 -k AGT 
- -t 1.018750000 -s 4 -d -1 -p cbr -e 210 -c 2 -a 0 -i 29 -k AGT
h -t 1.018750000 -s 4 -d -1 -p cbr -e 210 -c 2 -a 0 -i 29 -k AGT
+ -t 1.018784999 -s 0 -d -1 -p AODV -e 106 -c 2 -a 0 -i 0 -k MAC 
- -t 1.018784999 -s 0 -d -1 -p AODV -e 106 -c 2 -a 0 -i 0 -k MAC
h -t 1.018784999 -s 0 -d -1 -p AODV -e 106 -c 2 -a 0 -i 0 -k MAC
+ -t 1.019488747 -s 7 -d -1 -p AODV -e 48 -c 2 -a 0 -i 0 -k RTR 
- -t 1.019488747 -s 7 -d -1 -p AODV -e 48 -c 2 -a 0 -i 0 -k RTR
h -t 1.019488747 -s 7 -d -1 -p AODV -e 48 -c 2 -a 0 -i 0 -k RTR
r -t 1.019633414 -s 5 -d -1 -p AODV -e 48 -c 2 -a 0 -i 0 -k MAC
r -t 1.019633664 -s 8 -d -1 -p AODV -e 48 -c 2 -a 0 -i 0 -k MAC
r -t 1.019633808 -s 7 -d -1 -p AODV -e 48 -c 2 -a 0 -i 0 -k MAC
r -t 1.019658414 -s 5 -d -1 -p AODV -e 48 -c 2 -a 0 -i 0 -k RTR
r -t 1.019658664 -s 8 -d -1 -p AODV -e 48 -c 2 -a 0 -i 0 -k RTR
r -t 1.019658808 -s 7 -d -1 -p AODV -e 48 -c 2 -a 0 -i 0 -k RTR
+ -t 1.019763414 -s 5 -d -1 -p AODV -e 106 -c 2 -a 0 -i 0 -k MAC 
- -t 1.019763414 -s 5 -d -1 -p AODV -e 106 -c 2 -a 0 -i 0 -k MAC
h -t 1.019763414 -s 5 -d -1 -p AODV -e 106 -c 2 -a 0 -i 0 -k MAC
r -t 1.020611829 -s 0 -d -1 -p AODV -e 48 -c 2 -a 0 -i 0 -k MAC
r -t 1.020612189 -s 1 -d -1 -p AODV -e 48 -c 2 -a 0 -i 0 -k MAC
r -t 1.020612233 -s 7 -d -1 -p AODV -e 48 -c 2 -a 0 -i 0 -k MAC
r -t 1.020636829 -s 0 -d -1 -p AODV -e 48 -c 2 -a 0 -i 0 -k RTR
r -t 1.020637189 -s 1 -d -1 -p AODV -e 48 -c 2 -a 0 -i 0 -k RTR
r -t 1.020637233 -s 7 -d -1 -p AODV -e 48 -c 2 -a 0 -i 0 -k RTR
+ -t 1.020761829 -s 0 -d -1 -p AODV -e 106 -c 2 -a 0 -i 0 -k MAC 
- -t 1.020761829 -s 0 -d -1 -p AODV -e 106 -c 2 -a 0 -i 0 -k MAC
h -t 1.020761829 -s 0 -d -1 -p AODV -e 106 -c 2 -a 0 -i 0 -k MAC
r -t 1.021610244 -s 5 -d -1 -p AODV -e 48 -c 2 -a 0 -i 0 -k MAC
r -t 1.021610494 -s 8 -d -1 -p AODV -e 48 -c 2 -a 0 -i 0 -k MAC
r -t 1.021610638 -s 7 -d -1 -p AODV -e 48 -c 2 -a 0 -i 0 -k MAC
r -t 1.021635244 -s 5 -d -1 -p AODV -e 48 -c 2 -a 0 -i 0 -k RTR
r -t 1.021635494 -s 8 -d -1 -p AODV -e 48 -c 2 -a 0 -i 0 -k RTR
r -t 1.021635638 -s 7 -d -1 -p AODV -e 48 -c 2 -a 0 -i 0 -k RTR
+ -t 1.021659829 -s 0 -d -1 -p RTS -e 44 -c 2 -a 0 -i 0 -k MAC 
- -t 1.021659829 -s 0 -d -1 -p RTS -e 44 -c 2 -a 0 -i 0 -k MAC
h -t 1.021659829 -s 0 -d -1 -p RTS -e 44 -c 2 -a 0 -i 0 -k MAC
r -t 1.022012244 -s 5 -d -1 -p RTS -e 44 -c 2 -a 0 -i 0 -k MAC
+ -t 1.022022244 -s 5 -d -1 -p CTS -e 38 -c 2 -a 0 -i 0 -k MAC 
- -t 1.022022244 -s 5 -d -1 -p CTS -e 38 -c 2 -a 0 -i 0 -k MAC
h -t 1.022022244 -s 5 -d -1 -p CTS -e 38 -c 2 -a 0 -i 0 -k MAC
+ -t 1.022228602 -s 8 -d -1 -p AODV -e 48 -c 2 -a 0 -i 0 -k RTR 
- -t 1.022228602 -s 8 -d -1 -p AODV -e 48 -c 2 -a 0 -i 0 -k RTR
h -t 1.022228602 -s 8 -d -1 -p AODV -e 48 -c 2 -a 0 -i 0 -k RTR
r -t 1.022326659 -s 0 -d -1 -p CTS -e 38 -c 2 -a 0 -i 0 -k MAC
+ -t 1.022336659 -s 0 -d -1 -p ARP -e 86 -c 2 -a 0 -i 0 -k MAC 
- -t 1.022336659 -s 0 -d -1 -p ARP -e 86 -c 2 -a 0 -i 0 -k MAC
h -t 1.022336659 -s 0 -d -1 -p ARP -e 86 -c 2 -a 0 -i 0 -k MAC
+ -t 1.022500000 -s 0 -d -1 -p cbr -e 210 -c 2 -a 0 -i 30 -k AGT 
- -t 1.022500000 -s 0 -d -1 -p cbr -e 210 -c 2 -a 0 -i 30 -k AGT
h -t 1.022500000 -s 0 -d -1 -p cbr -e 210 -c 2 -a 0 -i 30 -k AGT
+ -t 1.022500000 -s 1 -d -1 -p cbr -e 210 -c 2 -a 0 -i 31 -k AGT 
- -t 1.022500000 -s 1 -d -1 -p cbr -e 210 -c 2 -a 0 -i 31 -k AGT
h -t 1.022500000 -s 1 -d -1 -p cbr -e 210 -c 2 -a 0 -i 31 -k AGT
+ -t 1.022500000 -s 2 -d -1 -p cbr -e 210 -c 2 -a 0 -i 32 -k AGT 
- -t 1.022500000 -s 2 -d -1 -p cbr -e 210 -c 2 -a 0 -i 32 -k AGT
h -t 1.022500000 -s 2 -d -1 -p cbr -e 210 -c 2 -a 0 -i 32 -k AGT
+ -t 1.022500000 -s 3 -d -1 -p cbr -e 210 -c 2 -a 0 -i 33 -k AGT 
- -t 1.022500000 -s 3 -d -1 -p cbr -e 210 -c 2 -a 0 -i 33 -k AGT
h -t 1.022500000 -s 3 -d -1 -p cbr -e 210 -c 2 -a 0 -i 33 -k AGT
+ -t 1.022500000 -s 4 -d -1 -p cbr -e 210 -c 2 -a 0 -i 34 -k AGT 
- -t 1.022500000 -s 4 -d -1 -p cbr -e 210 -c 2 -a 0 -i 34 -k AGT
h -t 1.022500000 -s 4 -d -1 -p cbr -e 210 -c 2 -a 0 -i 34 -k AGT
+ -t 1.022747841 -s 8 -d -1 -p AODV -e 48 -c 2 -a 0 -i 0 -k RTR 
- -t 1.022747841 -s 8 -d -1 -p AODV -e 48 -c 2 -a 0 -i 0 -k RTR
h -t 1.022747841 -s 8 -d -1 -p AODV -e 48 -c 2 -a 0 -i 0 -k RTR
r -t 1.023025074 -s 5 -d -1 -p ARP -e 28 -c 2 -a 0 -i 0 -k MAC
+ -t 1.023035074 -s 5 -d -1 -p ACK -e 38 -c 2 -a 0 -i 0 -k MAC 
- -t 1.023035074 -s 5 -d -1 -p ACK -e 38 -c 2 -a 0 -i 0 -k MAC
h -t 1.023035074 -s 5 -d -1 -p ACK -e 38 -c 2 -a 0 -i 0 -k MAC
r -t 1.023339489 -s 0 -d -1 -p ACK -e 38 -c 2 -a 0 -i 0 -k MAC
+ -t 1.023489893 -s 7 -d -1 -p AODV -e 106 -c 2 -a 0 -i 0 -k MAC 
- -t 1.023489893 -s 7 -d -1 -p AODV -e 106 -c 2 -a 0 -i 0 -k MAC
h -t 1.023489893 -s 7 -d -1 -p AODV -e 106 -c 2 -a 0 -i 0 -k MAC
r -t 1.024338107 -s 1 -d -1 -p AODV -e 48 -c 2 -a 0 -i 0 -k MAC
r -t 1.024338217 -s 2 -d -1 -p AODV -e 48 -c 2 -a 0 -i 0 -k MAC
r -t 1.024338269 -s 3 -d -1 -p AODV -e 48 -c 2 -a 0 -i 0 -k MAC
r -t 1.024338702 -s 0 -d -1 -p AODV -e 48 -c 2 -a 0 -i 0 -k MAC
r -t 1.024338712 -s 5 -d -1 -p AODV -e 48 -c 2 -a 0 -i 0 -k MAC
r -t 1.024363107 -s 1 -d -1 -p AODV -e 48 -c 2 -a 0 -i 0 -k RTR
r -t 1.024363217 -s 2 -d -1 -p AODV -e 48 -c 2 -a 0 -i 0 -k RTR
r -t 1.024363269 -s 3 -d -1 -p AODV -e 48 -c 2 -a 0 -i 0 -k RTR
r -t 1.024363702 -s 0 -d -1 -p AODV -e 48 -c 2 -a 0 -i 0 -k RTR
r -t 1.024363712 -s 5 -d -1 -p AODV -e 48 -c 2 -a 0 -i 0 -k RTR
+ -t 1.024638792 -s 2 -d -1 -p AODV -e 48 -c 2 -a 0 -i 0 -k RTR 
- -t 1.024638792 -s 2 -d -1 -p AODV -e 48 -c 2 -a 0 -i 0 -k RTR
h -t 1.024638792 -s 2 -d -1 -p AODV -e 48 -c 2 -a 0 -i 0 -k RTR
+ -t 1.024668712 -s 5 -d -1 -p RTS -e 44 -c 2 -a 0 -i 0 -k MAC 
- -t 1.024668712 -s 5 -d -1 -p RTS -e 44 -c 2 -a 0 -i 0 -k MAC
h -t 1.024668712 -s 5 -d -1 -p RTS -e 44 -c 2 -a 0 -i 0 -k MAC
r -t 1.025021487 -s 1 -d -1 -p RTS -e 44 -c 2 -a 0 -i 0 -k MAC
+ -t 1.025031487 -s 1 -d -1 -p CTS -e 38 -c 2 -a 0 -i 0 -k MAC 
- -t 1.025031487 -s 1 -d -1 -p CTS -e 38 -c 2 -a 0 -i 0 -k MAC
h -t 1.025031487 -s 1 -d -1 -p CTS -e 38 -c 2 -a 0 -i 0 -k MAC
r -t 1.025336261 -s 5 -d -1 -p CTS -e 38 -c 2 -a 0 -i 0 -k MAC
+ -t 1.025346261 -s 5 -d 1 -p AODV -e 102 -c 2 -a 0 -i 0 -k MAC 
- -t 1.025346261 -s 5 -d 1 -p AODV -e 102 -c 2 -a 0 -i 0 -k MAC
h -t 1.025346261 -s 5 -d 1 -p AODV -e 102 -c 2 -a 0 -i 0 -k MAC
r -t 1.026163036 -s 1 -d 1 -p AODV -e 44 -c 2 -a 0 -i 0 -k MAC
+ -t 1.026173036 -s 1 -d -1 -p ACK -e 38 -c 2 -a 0 -i 0 -k MAC 
- -t 1.026173036 -s 1 -d -1 -p ACK -e 38 -c 2 -a 0 -i 0 -k MAC
h -t 1.026173036 -s 1 -d -1 -p ACK -e 38 -c 2 -a 0 -i 0 -k MAC
+ -t 1.026188036 -s 1 -d 5 -p cbr -e 230 -c 2 -a 0 -i 1 -k RTR 
- -t 1.026188036 -s 1 -d 5 -p cbr -e 230 -c 2 -a 0 -i 1 -k RTR
h -t 1.026188036 -s 1 -d 5 -p cbr -e 230 -c 2 -a 0 -i 1 -k RTR
+ -t 1.026250000 -s 0 -d -1 -p cbr -e 210 -c 2 -a 0 -i 35 -k AGT 
- -t 1.026250000 -s 0 -d -1 -p cbr -e 210 -c 2 -a 0 -i 35 -k AGT
h -t 1.026250000 -s 0 -d -1 -p cbr -e 210 -c 2 -a 0 -i 35 -k AGT
+ -t 1.026250000 -s 1 -d -1 -p cbr -e 210 -c 2 -a 0 -i 36 -k AGT 
- -t 1.026250000 -s 1 -d -1 -p cbr -e 210 -c 2 -a 0 -i 36 -k AGT
h -t 1.026250000 -s 1 -d -1 -p cbr -e 210 -c 2 -a 0 -i 36 -k AGT
+ -t 1.026250000 -s 2 -d -1 -p cbr -e 210 -c 2 -a 0 -i 37 -k AGT 
- -t 1.026250000 -s 2 -d -1 -p cbr -e 210 -c 2 -a 0 -i 37 -k AGT
h -t 1.026250000 -s 2 -d -1 -p cbr -e 210 -c 2 -a 0 -i 37 -k AGT
+ -t 1.026250000 -s 3 -d -1 -p cbr -e 210 -c 2 -a 0 -i 38 -k AGT 
- -t 1.026250000 -s 3 -d -1 -p cbr -e 210 -c 2 -a 0 -i 38 -k AGT
h -t 1.026250000 -s 3 -d -1 -p cbr -e 210 -c 2 -a 0 -i 38 -k AGT
+ -t 1.026250000 -s 4 -d -1 -p cbr -e 210 -c 2 -a 0 -i 39 -k AGT 