M 0.00000 0 (412.00, 335.00, 0.00), (413.00, 336.00), 100.00
M 0.00000 1 (170.00, 434.00, 0.00), (171.00, 435.00), 100.00
M 0.00000 2 (141.00, 462.00, 0.00), (142.00, 463.00), 100.00
M 0.00000 3 (82.00, 438.00, 0.00), (83.00, 439.00), 100.00
M 0.00000 4 (287.00, 67.00, 0.00), (288.00, 68.00), 100.00
M 0.00000 5 (401.00, 459.00, 0.00), (402.00, 460.00), 100.00
M 0.00000 6 (51.00, 76.00, 0.00), (52.00, 77.00), 100.00
M 0.00000 7 (172.00, 370.00, 0.00), (173.00, 371.00), 100.00
M 0.00000 8 (335.00, 151.00, 0.00), (336.00, 152.00), 100.00
M 0.00000 9 (286.00, 101.00, 0.00), (287.00, 102.00), 100.00
s 1.000000000 _0_ AGT  --- 0 cbr 210 [0.00 0 0] ------- [0:0 5:0 32 0] [0] 0 0
r 1.000000000 _0_ RTR  --- 0 cbr 210 [0.00 0 0] ------- [0:0 5:0 32 0] [0] 0 0
s 1.000000000 _1_ AGT  --- 1 cbr 210 [0.00 0 0] ------- [1:0 5:1 32 0] [0] 0 0
r 1.000000000 _1_ RTR  --- 1 cbr 210 [0.00 0 0] ------- [1:0 5:1 32 0] [0] 0 0
s 1.000000000 _2_ AGT  --- 2 cbr 210 [0.00 0 0] ------- [2:0 6:0 32 0] [0] 0 0
r 1.000000000 _2_ RTR  --- 2 cbr 210 [0.00 0 0] ------- [2:0 6:0 32 0] [0] 0 0
s 1.000000000 _3_ AGT  --- 3 cbr 210 [0.00 0 0] ------- [3:0 6:1 32 0] [0] 0 0
r 1.000000000 _3_ RTR  --- 3 cbr 210 [0.00 0 0] ------- [3:0 6:1 32 0] [0] 0 0
s 1.000000000 _4_ AGT  --- 4 cbr 210 [0.00 0 0] ------- [4:0 7:0 32 0] [0] 0 0
r 1.000000000 _4_ RTR  --- 4 cbr 210 [0.00 0 0] ------- [4:0 7:0 32 0] [0] 0 0
s 1.000000000 _0_ RTR  --- 0 AODV 48 [0.00 0 0] ------- [0:255 -1:255 30 0] [0x2 1 1 [5 0] [0 4]] (REQUEST)
s 1.000000000 _1_ RTR  --- 0 AODV 48 [0.00 0 0] ------- [1:255 -1:255 30 0] [0x2 1 1 [5 0] [1 4]] (REQUEST)
s 1.000000000 _2_ RTR  --- 0 AODV 48 [0.00 0 0] ------- [2:255 -1:255 30 0] [0x2 1 1 [6 0] [2 4]] (REQUEST)
s 1.000000000 _3_ RTR  --- 0 AODV 48 [0.00 0 0] ------- [3:255 -1:255 30 0] [0x2 1 1 [6 0] [3 4]] (REQUEST)
s 1.000000000 _4_ RTR  --- 0 AODV 48 [0.00 0 0] ------- [4:255 -1:255 30 0] [0x2 1 1 [7 0] [4 4]] (REQUEST)
s 1.003750000 _0_ AGT  --- 5 cbr 210 [0.00 0 0] ------- [0:0 5:0 32 0] [1] 0 0
r 1.003750000 _0_ RTR  --- 5 cbr 210 [0.00 0 0] ------- [0:0 5:0 32 0] [1] 0 0
s 1.003750000 _1_ AGT  --- 6 cbr 210 [0.00 0 0] ------- [1:0 5:1 32 0] [1] 0 0
r 1.003750000 _1_ RTR  --- 6 cbr 210 [0.00 0 0] ------- [1:0 5:1 32 0] [1] 0 0
s 1.003750000 _2_ AGT  --- 7 cbr 210 [0.00 0 0] ------- [2:0 6:0 32 0] [1] 0 0
r 1.003750000 _2_ RTR  --- 7 cbr 210 [0.00 0 0] ------- [2:0 6:0 32 0] [1] 0 0
s 1.003750000 _3_ AGT  --- 8 cbr 210 [0.00 0 0] ------- [3:0 6:1 32 0] [1] 0 0
r 1.003750000 _3_ RTR  --- 8 cbr 210 [0.00 0 0] ------- [3:0 6:1 32 0] [1] 0 0
s 1.003750000 _4_ AGT  --- 9 cbr 210 [0.00 0 0] ------- [4:0 7:0 32 0] [1] 0 0
r 1.003750000 _4_ RTR  --- 9 cbr 210 [0.00 0 0] ------- [4:0 7:0 32 0] [1] 0 0
s 1.007500000 _0_ AGT  --- 10 cbr 210 [0.00 0 0] ------- [0:0 5:0 32 0] [2] 0 0
r 1.007500000 _0_ RTR  --- 10 cbr 210 [0.00 0 0] ------- [0:0 5:0 32 0] [2] 0 0
s 1.007500000 _1_ AGT  --- 11 cbr 210 [0.00 0 0] ------- [1:0 5:1 32 0] [2] 0 0
r 1.007500000 _1_ RTR  --- 11 cbr 210 [0.00 0 0] ------- [1:0 5:1 32 0] [2] 0 0
s 1.007500000 _2_ AGT  --- 12 cbr 210 [0.00 0 0] ------- [2:0 6:0 32 0] [2] 0 0
r 1.007500000 _2_ RTR  --- 12 cbr 210 [0.00 0 0] ------- [2:0 6:0 32 0] [2] 0 0
s 1.007500000 _3_ AGT  --- 13 cbr 210 [0.00 0 0] ------- [3:0 6:1 32 0] [2] 0 0
r 1.007500000 _3_ RTR  --- 13 cbr 210 [0.00 0 0] ------- [3:0 6:1 32 0] [2] 0 0
s 1.007500000 _4_ AGT  --- 14 cbr 210 [0.00 0 0] ------- [4:0 7:0 32 0] [2] 0 0
r 1.007500000 _4_ RTR  --- 14 cbr 210 [0.00 0 0] ------- [4:0 7:0 32 0] [2] 0 0
s 1.011250000 _0_ AGT  --- 15 cbr 210 [0.00 0 0] ------- [0:0 5:0 32 0] [3] 0 0
r 1.011250000 _0_ RTR  --- 15 cbr 210 [0.00 0 0] ------- [0:0 5:0 32 0] [3] 0 0
s 1.011250000 _1_ AGT  --- 16 cbr 210 [0.00 0 0] ------- [1:0 5:1 32 0] [3] 0 0
r 1.011250000 _1_ RTR  --- 16 cbr 210 [0.00 0 0] ------- [1:0 5:1 32 0] [3] 0 0
s 1.011250000 _2_ AGT  --- 17 cbr 210 [0.00 0 0] ------- [2:0 6:0 32 0] [3] 0 0
r 1.011250000 _2_ RTR  --- 17 cbr 210 [0.00 0 0] ------- [2:0 6:0 32 0] [3] 0 0
s 1.011250000 _3_ AGT  --- 18 cbr 210 [0.00 0 0] ------- [3:0 6:1 32 0] [3] 0 0
r 1.011250000 _3_ RTR  --- 18 cbr 210 [0.00 0 0] ------- [3:0 6:1 32 0] [3] 0 0
s 1.011250000 _4_ AGT  --- 19 cbr 210 [0.00 0 0] ------- [4:0 7:0 32 0] [3] 0 0
r 1.011250000 _4_ RTR  --- 19 cbr 210 [0.00 0 0] ------- [4:0 7:0 32 0] [3] 0 0
s 1.015000000 _0_ AGT  --- 20 cbr 210 [0.00 0 0] ------- [0:0 5:0 32 0] [4] 0 0
r 1.015000000 _0_ RTR  --- 20 cbr 210 [0.00 0 0] ------- [0:0 5:0 32 0] [4] 0 0
s 1.015000000 _1_ AGT  --- 21 cbr 210 [0.00 0 0] ------- [1:0 5:1 32 0] [4] 0 0
r 1.015000000 _1_ RTR  --- 21 cbr 210 [0.00 0 0] ------- [1:0 5:1 32 0] [4] 0 0
s 1.015000000 _2_ AGT  --- 22 cbr 210 [0.00 0 0] ------- [2:0 6:0 32 0] [4] 0 0
r 1.015000000 _2_ RTR  --- 22 cbr 210 [0.00 0 0] ------- [2:0 6:0 32 0] [4] 0 0
s 1.015000000 _3_ AGT  --- 23 cbr 210 [0.00 0 0] ------- [3:0 6:1 32 0] [4] 0 0
r 1.015000000 _3_ RTR  --- 23 cbr 210 [0.00 0 0] ------- [3:0 6:1 32 0] [4] 0 0
s 1.015000000 _4_ AGT  --- 24 cbr 210 [0.00 0 0] ------- [4:0 7:0 32 0] [4] 0 0
r 1.015000000 _4_ RTR  --- 24 cbr 210 [0.00 0 0] ------- [4:0 7:0 32 0] [4] 0 0
s 1.018750000 _0_ AGT  --- 25 cbr 210 [0.00 0 0] ------- [0:0 5:0 32 0] [5] 0 0
r 1.018750000 _0_ RTR  --- 25 cbr 210 [0.00 0 0] ------- [0:0 5:0 32 0] [5] 0 0
s 1.018750000 _1_ AGT  --- 26 cbr 210 [0.00 0 0] ------- [1:0 5:1 32 0] [5] 0 0
r 1.018750000 _1_ RTR  --- 26 cbr 210 [0.00 0 0] ------- [1:0 5:1 32 0] [5] 0 0
s 1.018750000 _2_ AGT  --- 27 cbr 210 [0.00 0 0] ------- [2:0 6:0 32 0] [5] 0 0
r 1.018750000 _2_ RTR  --- 27 cbr 210 [0.00 0 0] ------- [2:0 6:0 32 0] [5] 0 0
s 1.018750000 _3_ AGT  --- 28 cbr 210 [0.00 0 0] ------- [3:0 6:1 32 0] [5] 0 0
r 1.018750000 _3_ RTR  --- 28 cbr 210 [0.00 0 0] ------- [3:0 6:1 32 0] [5] 0 0
s 1.018750000 _4_ AGT  --- 29 cbr 210 [0.00 0 0] ------- [4:0 7:0 32 0] [5] 0 0
r 1.018750000 _4_ RTR  --- 29 cbr 210 [0.00 0 0] ------- [4:0 7:0 32 0] [5] 0 0
s 1.021025000 _0_ MAC  --- 0 AODV 48 [0.00 -1 0] ------- [0:255 -1:255 30 0] [0x2 1 1 [5 0] [0 4]] (REQUEST)
s 1.022500000 _0_ AGT  --- 30 cbr 210 [0.00 0 0] ------- [0:0 5:0 32 0] [6] 0 0
r 1.022500000 _0_ RTR  --- 30 cbr 210 [0.00 0 0] ------- [0:0 5:0 32 0] [6] 0 0
s 1.022500000 _1_ AGT  --- 31 cbr 210 [0.00 0 0] ------- [1:0 5:1 32 0] [6] 0 0
r 1.022500000 _1_ RTR  --- 31 cbr 210 [0.00 0 0] ------- [1:0 5:1 32 0] [6] 0 0
s 1.022500000 _2_ AGT  --- 32 cbr 210 [0.00 0 0] ------- [2:0 6:0 32 0] [6] 0 0
r 1.022500000 _2_ RTR  --- 32 cbr 210 [0.00 0 0] ------- [2:0 6:0 32 0] [6] 0 0
s 1.022500000 _3_ AGT  --- 33 cbr 210 [0.00 0 0] ------- [3:0 6:1 32 0] [6] 0 0
r 1.022500000 _3_ RTR  --- 33 cbr 210 [0.00 0 0] ------- [3:0 6:1 32 0] [6] 0 0
s 1.022500000 _4_ AGT  --- 34 cbr 210 [0.00 0 0] ------- [4:0 7:0 32 0] [6] 0 0
r 1.022500000 _4_ RTR  --- 34 cbr 210 [0.00 0 0] ------- [4:0 7:0 32 0] [6] 0 0
s 1.026250000 _0_ AGT  --- 35 cbr 210 [0.00 0 0] ------- [0:0 5:0 32 0] [7] 0 0
r 1.026250000 _0_ RTR  --- 35 cbr 210 [0.00 0 0] ------- [0:0 5:0 32 0] [7] 0 0
s 1.026250000 _1_ AGT  --- 36 cbr 210 [0.00 0 0] ------- [1:0 5:1 32 0] [7] 0 0
r 1.026250000 _1_ RTR  --- 36 cbr 210 [0.00 0 0] ------- [1:0 5:1 32 0] [7] 0 0
s 1.026250000 _2_ AGT  --- 37 cbr 210 [0.00 0 0] ------- [2:0 6:0 32 0] [7] 0 0
r 1.026250000 _2_ RTR  --- 37 cbr 210 [0.00 0 0] ------- [2:0 6:0 32 0] [7] 0 0
s 1.026250000 _3_ AGT  --- 38 cbr 210 [0.00 0 0] ------- [3:0 6:1 32 0] [7] 0 0
r 1.026250000 _3_ RTR  --- 38 cbr 210 [0.00 0 0] ------- [3:0 6:1 32 0] [7] 0 0
s 1.026250000 _4_ AGT  --- 39 cbr 210 [0.00 0 0] ------- [4:0 7:0 32 0] [7] 0 0
r 1.026250000 _4_ RTR  --- 39 cbr 210 [0.00 0 0] ------- [4:0 7:0 32 0] [7] 0 0
s 1.030000000 _0_ AGT  --- 40 cbr 210 [0.00 0 0] ------- [0:0 5:0 32 0] [8] 0 0
r 1.030000000 _0_ RTR  --- 40 cbr 210 [0.00 0 0] ------- [0:0 5:0 32 0] [8] 0 0
s 1.030000000 _1_ AGT  --- 41 cbr 210 [0.00 0 0] ------- [1:0 5:1 32 0] [8] 0 0
r 1.030000000 _1_ RTR  --- 41 cbr 210 [0.00 0 0] ------- [1:0 5:1 32 0] [8] 0 0
s 1.030000000 _2_ AGT  --- 42 cbr 210 [0.00 0 0] ------- [2:0 6:0 32 0] [8] 0 0
r 1.030000000 _2_ RTR  --- 42 cbr 210 [0.00 0 0] ------- [2:0 6:0 32 0] [8] 0 0
s 1.030000000 _3_ AGT  --- 43 cbr 210 [0.00 0 0] ------- [3:0 6:1 32 0] [8] 0 0
r 1.030000000 _3_ RTR  --- 43 cbr 210 [0.00 0 0] ------- [3:0 6:1 32 0] [8] 0 0
s 1.030000000 _4_ AGT  --- 44 cbr 210 [0.00 0 0] ------- [4:0 7:0 32 0] [8] 0 0
r 1.030000000 _4_ RTR  --- 44 cbr 210 [0.00 0 0] ------- [4:0 7:0 32 0] [8] 0 0
s 1.033750000 _0_ AGT  --- 45 cbr 210 [0.00 0 0] ------- [0:0 5:0 32 0] [9] 0 0
r 1.033750000 _0_ RTR  --- 45 cbr 210 [0.00 0 0] ------- [0:0 5:0 32 0] [9] 0 0
s 1.033750000 _1_ AGT  --- 46 cbr 210 [0.00 0 0] ------- [1:0 5:1 32 0] [9] 0 0
r 1.033750000 _1_ RTR  --- 46 cbr 210 [0.00 0 0] ------- [1:0 5:1 32 0] [9] 0 0
s 1.033750000 _2_ AGT  --- 47 cbr 210 [0.00 0 0] ------- [2:0 6:0 32 0] [9] 0 0
r 1.033750000 _2_ RTR  --- 47 cbr 210 [0.00 0 0] ------- [2:0 6:0 32 0] [9] 0 0
s 1.033750000 _3_ AGT  --- 48 cbr 210 [0.00 0 0] ------- [3:0 6:1 32 0] [9] 0 0
r 1.033750000 _3_ RTR  --- 48 cbr 210 [0.00 0 0] ------- [3:0 6:1 32 0] [9] 0 0
s 1.033750000 _4_ AGT  --- 49 cbr 210 [0.00 0 0] ------- [4:0 7:0 32 0] [9] 0 0
r 1.033750000 _4_ RTR  --- 49 cbr 210 [0.00 0 0] ------- [4:0 7:0 32 0] [9] 0 0
s 1.037500000 _0_ AGT  --- 50 cbr 210 [0.00 0 0] ------- [0:0 5:0 32 0] [10] 0 0
r 1.037500000 _0_ RTR  --- 50 cbr 210 [0.00 0 0] ------- [0:0 5:0 32 0] [10] 0 0
s 1.037500000 _1_ AGT  --- 51 cbr 210 [0.00 0 0] ------- [1:0 5:1 32 0] [10] 0 0
r 1.037500000 _1_ RTR  --- 51 cbr 210 [0.00 0 0] ------- [1:0 5:1 32 0] [10] 0 0
s 1.037500000 _2_ AGT  --- 52 cbr 210 [0.00 0 0] ------- [2:0 6:0 32 0] [10] 0 0
r 1.037500000 _2_ RTR  --- 52 cbr 210 [0.00 0 0] ------- [2:0 6:0 32 0] [10] 0 0
s 1.037500000 _3_ AGT  --- 53 cbr 210 [0.00 0 0] ------- [3:0 6:1 32 0] [10] 0 0
r 1.037500000 _3_ RTR  --- 53 cbr 210 [0.00 0 0] ------- [3:0 6:1 32 0] [10] 0 0
s 1.037500000 _4_ AGT  --- 54 cbr 210 [0.00 0 0] ------- [4:0 7:0 32 0] [10] 0 0
r 1.037500000 _4_ RTR  --- 54 cbr 210 [0.00 0 0] ------- [4:0 7:0 32 0] [10] 0 0
s 1.041250000 _0_ AGT  --- 55 cbr 210 [0.00 0 0] ------- [0:0 5:0 32 0] [11] 0 0
r 1.041250000 _0_ RTR  --- 55 cbr 210 [0.00 0 0] ------- [0:0 5:0 32 0] [11] 0 0
s 1.041250000 _1_ AGT  --- 56 cbr 210 [0.00 0 0] ------- [1:0 5:1 32 0] [11] 0 0
r 1.041250000 _1_ RTR  --- 56 cbr 210 [0.00 0 0] ------- [1:0 5:1 32 0] [11] 0 0
s 1.041250000 _2_ AGT  --- 57 cbr 210 [0.00 0 0] ------- [2:0 6:0 32 0] [11] 0 0
r 1.041250000 _2_ RTR  --- 57 cbr 210 [0.00 0 0] ------- [2:0 6:0 32 0] [11] 0 0
s 1.041250000 _3_ AGT  --- 58 cbr 210 [0.00 0 0] ------- [3:0 6:1 32 0] [11] 0 0
r 1.041250000 _3_ RTR  --- 58 cbr 210 [0.00 0 0] ------- [3:0 6:1 32 0] [11] 0 0
s 1.041250000 _4_ AGT  --- 59 cbr 210 [0.00 0 0] ------- [4:0 7:0 32 0] [11] 0 0
r 1.041250000 _4_ RTR  --- 59 cbr 210 [0.00 0 0] ------- [4:0 7:0 32 0] [11] 0 0
s 1.045000000 _0_ AGT  --- 60 cbr 210 [0.00 0 0] ------- [0:0 5:0 32 0] [12] 0 0
r 1.045000000 _0_ RTR  --- 60 cbr 210 [0.00 0 0] ------- [0:0 5:0 32 0] [12] 0 0
s 1.045000000 _1_ AGT  --- 61 cbr 210 [0.00 0 0] ------- [1:0 5:1 32 0] [12] 0 0
r 1.045000000 _1_ RTR  --- 61 cbr 210 [0.00 0 0] ------- [1:0 5:1 32 0] [12] 0 0
s 1.045000000 _2_ AGT  --- 62 cbr 210 [0.00 0 0] ------- [2:0 6:0 32 0] [12] 0 0
r 1.045000000 _2_ RTR  --- 62 cbr 210 [0.00 0 0] ------- [2:0 6:0 32 0] [12] 0 0
s 1.045000000 _3_ AGT  --- 63 cbr 210 [0.00 0 0] ------- [3:0 6:1 32 0] [12] 0 0
r 1.045000000 _3_ RTR  --- 63 cbr 210 [0.00 0 0] ------- [3:0 6:1 32 0] [12] 0 0
s 1.045000000 _4_ AGT  --- 64 cbr 210 [0.00 0 0] ------- [4:0 7:0 32 0] [12] 0 0
r 1.045000000 _4_ RTR  --- 64 cbr 210 [0.00 0 0] ------- [4:0 7:0 32 0] [12] 0 0
s 1.048750000 _0_ AGT  --- 65 cbr 210 [0.00 0 0] ------- [0:0 5:0 32 0] [13] 0 0
r 1.048750000 _0_ RTR  --- 65 cbr 210 [0.00 0 0] ------- [0:0 5:0 32 0] [13] 0 0
s 1.048750000 _1_ AGT  --- 66 cbr 210 [0.00 0 0] ------- [1:0 5:1 32 0] [13] 0 0
r 1.048750000 _1_ RTR  --- 66 cbr 210 [0.00 0 0] ------- [1:0 5:1 32 0] [13] 0 0
s 1.048750000 _2_ AGT  --- 67 cbr 210 [0.00 0 0] ------- [2:0 6:0 32 0] [13] 0 0
r 1.048750000 _2_ RTR  --- 67 cbr 210 [0.00 0 0] ------- [2:0 6:0 32 0] [13] 0 0
s 1.048750000 _3_ AGT  --- 68 cbr 210 [0.00 0 0] ------- [3:0 6:1 32 0] [13] 0 0
r 1.048750000 _3_ RTR  --- 68 cbr 210 [0.00 0 0] ------- [3:0 6:1 32 0] [13] 0 0
s 1.048750000 _4_ AGT  --- 69 cbr 210 [0.00 0 0] ------- [4:0 7:0 32 0] [13] 0 0
r 1.048750000 _4_ RTR  --- 69 cbr 210 [0.00 0 0] ------- [4:0 7:0 32 0] [13] 0 0
s 1.052500000 _0_ AGT  --- 70 cbr 210 [0.00 0 0] ------- [0:0 5:0 32 0] [14] 0 0
r 1.052500000 _0_ RTR  --- 70 cbr 210 [0.00 0 0] ------- [0:0 5:0 32 0] [14] 0 0
s 1.052500000 _1_ AGT  --- 71 cbr 210 [0.00 0 0] ------- [1:0 5:1 32 0] [14] 0 0
r 1.052500000 _1_ RTR  --- 71 cbr 210 [0.00 0 0] ------- [1:0 5:1 32 0] [14] 0 0
s 1.052500000 _2_ AGT  --- 72 cbr 210 [0.00 0 0] ------- [2:0 6:0 32 0] [14] 0 0
r 1.052500000 _2_ RTR  --- 72 cbr 210 [0.00 0 0] ------- [2:0 6:0 32 0] [14] 0 0
s 1.052500000 _3_ AGT  --- 73 cbr 210 [0.00 0 0] ------- [3:0 6:1 32 0] [14] 0 0
r 1.052500000 _3_ RTR  --- 73 cbr 210 [0.00 0 0] ------- [3:0 6:1 32 0] [14] 0 0
s 1.052500000 _4_ AGT  --- 74 cbr 210 [0.00 0 0] ------- [4:0 7:0 32 0] [14] 0 0
r 1.052500000 _4_ RTR  --- 74 cbr 210 [0.00 0 0] ------- [4:0 7:0 32 0] [14] 0 0
s 1.056250000 _0_ AGT  --- 75 cbr 210 [0.00 0 0] ------- [0:0 5:0 32 0] [15] 0 0
r 1.056250000 _0_ RTR  --- 75 cbr 210 [0.00 0 0] ------- [0:0 5:0 32 0] [15] 0 0
s 1.056250000 _1_ AGT  --- 76 cbr 210 [0.00 0 0] ------- [1:0 5:1 32 0] [15] 0 0
r 1.056250000 _1_ RTR  --- 76 cbr 210 [0.00 0 0] ------- [1:0 5:1 32 0] [15] 0 0
s 1.056250000 _2_ AGT  --- 77 cbr 210 [0.00 0 0] ------- [2:0 6:0 32 0] [15] 0 0
r 1.056250000 _2_ RTR  --- 77 cbr 210 [0.00 0 0] ------- [2:0 6:0 32 0] [15] 0 0
s 1.056250000 _3_ AGT  --- 78 cbr 210 [0.00 0 0] ------- [3:0 6:1 32 0] [15] 0 0
r 1.056250000 _3_ RTR  --- 78 cbr 210 [0.00 0 0] ------- [3:0 6:1 32 0] [15] 0 0
s 1.056250000 _4_ AGT  --- 79 cbr 210 [0.00 0 0] ------- [4:0 7:0 32 0] [15] 0 0
r 1.056250000 _4_ RTR  --- 79 cbr 210 [0.00 0 0] ------- [4:0 7:0 32 0] [15] 0 0
s 1.060000000 _0_ AGT  --- 80 cbr 210 [0.00 0 0] ------- [0:0 5:0 32 0] [16] 0 0
r 1.060000000 _0_ RTR  --- 80 cbr 210 [0.00 0 0] ------- [0:0 5:0 32 0] [16] 0 0
s 1.060000000 _1_ AGT  --- 81 cbr 210 [0.00 0 0] ------- [1:0 5:1 32 0] [16] 0 0
r 1.060000000 _1_ RTR  --- 81 cbr 210 [0.00 0 0] ------- [1:0 5:1 32 0] [16] 0 0
s 1.060000000 _2_ AGT  --- 82 cbr 210 [0.00 0 0] ------- [2:0 6:0 32 0] [16] 0 0
r 1.060000000 _2_ RTR  --- 82 cbr 210 [0.00 0 0] ------- [2:0 6:0 32 0] [16] 0 0
s 1.060000000 _3_ AGT  --- 83 cbr 210 [0.00 0 0] ------- [3:0 6:1 32 0] [16] 0 0
r 1.060000000 _3_ RTR  --- 83 cbr 210 [0.00 0 0] ------- [3:0 6:1 32 0] [16] 0 0
s 1.060000000 _4_ AGT  --- 84 cbr 210 [0.00 0 0] ------- [4:0 7:0 32 0] [16] 0 0
r 1.060000000 _4_ RTR  --- 84 cbr 210 [0.00 0 0] ------- [4:0 7:0 32 0] [16] 0 0
s 1.063750000 _0_ AGT  --- 85 cbr 210 [0.00 0 0] ------- [0:0 5:0 32 0] [17] 0 0
r 1.063750000 _0_ RTR  --- 85 cbr 210 [0.00 0 0] ------- [0:0 5:0 32 0] [17] 0 0
s 1.063750000 _1_ AGT  --- 86 cbr 210 [0.00 0 0] ------- [1:0 5:1 32 0] [17] 0 0
r 1.063750000 _1_ RTR  --- 86 cbr 210 [0.00 0 0] ------- [1:0 5:1 32 0] [17] 0 0
s 1.063750000 _2_ AGT  --- 87 cbr 210 [0.00 0 0] ------- [2:0 6:0 32 0] [17] 0 0
r 1.063750000 _2_ RTR  --- 87 cbr 210 [0.00 0 0] ------- [2:0 6:0 32 0] [17] 0 0
s 1.063750000 _3_ AGT  --- 88 cbr 210 [0.00 0 0] ------- [3:0 6:1 32 0] [17] 0 0
r 1.063750000 _3_ RTR  --- 88 cbr 210 [0.00 0 0] ------- [3:0 6:1 32 0] [17] 0 0
s 1.063750000 _4_ AGT  --- 89 cbr 210 [0.00 0 0] ------- [4:0 7:0 32 0] [17] 0 0
r 1.063750000 _4_ RTR  --- 89 cbr 210 [0.00 0 0] ------- [4:0 7:0 32 0] [17] 0 0
r 1.064025415 _5_ MAC  --- 0 AODV 48 [0.00 -1 0] ------- [0:255 -1:255 30 0] [0x2 1 1 [5 0] [0 4]] (REQUEST)
r 1.064025665 _8_ MAC  --- 0 AODV 48 [0.00 -1 0] ------- [0:255 -1:255 30 0] [0x2 1 1 [5 0] [0 4]] (REQUEST)
r 1.064025808 _7_ MAC  --- 0 AODV 48 [0.00 -1 0] ------- [0:255 -1:255 30 0] [0x2 1 1 [5 0] [0 4]] (REQUEST)
r 1.064050415 _5_ RTR  --- 0 AODV 48 [0.00 -1 0] ------- [0:255 -1:255 30 0] [0x2 1 1 [5 0] [0 4]] (REQUEST)
s 1.064050415 _5_ RTR  --- 0 AODV 44 [0.00 0 0] ------- [5:255 0:255 30 0] [0x4 1 [5 4] 10.000000] (REPLY)
r 1.064050665 _8_ RTR  --- 0 AODV 48 [0.00 -1 0] ------- [0:255 -1:255 30 0] [0x2 1 1 [5 0] [0 4]] (REQUEST)
r 1.064050808 _7_ RTR  --- 0 AODV 48 [0.00 -1 0] ------- [0:255 -1:255 30 0] [0x2 1 1 [5 0] [0 4]] (REQUEST)
s 1.067180426 _7_ RTR  --- 0 AODV 48 [0.00 -1 0] ------- [7:255 -1:255 29 0] [0x2 2 1 [5 0] [0 4]] (REQUEST)
s 1.067500000 _0_ AGT  --- 90 cbr 210 [0.00 0 0] ------- [0:0 5:0 32 0] [18] 0 0
r 1.067500000 _0_ RTR  --- 90 cbr 210 [0.00 0 0] ------- [0:0 5:0 32 0] [18] 0 0
s 1.067500000 _1_ AGT  --- 91 cbr 210 [0.00 0 0] ------- [1:0 5:1 32 0] [18] 0 0
r 1.067500000 _1_ RTR  --- 91 cbr 210 [0.00 0 0] ------- [1:0 5:1 32 0] [18] 0 0
s 1.067500000 _2_ AGT  --- 92 cbr 210 [0.00 0 0] ------- [2:0 6:0 32 0] [18] 0 0
r 1.067500000 _2_ RTR  --- 92 cbr 210 [0.00 0 0] ------- [2:0 6:0 32 0] [18] 0 0
s 1.067500000 _3_ AGT  --- 93 cbr 210 [0.00 0 0] ------- [3:0 6:1 32 0] [18] 0 0
r 1.067500000 _3_ RTR  --- 93 cbr 210 [0.00 0 0] ------- [3:0 6:1 32 0] [18] 0 0
s 1.067500000 _4_ AGT  --- 94 cbr 210 [0.00 0 0] ------- [4:0 7:0 32 0] [18] 0 0
r 1.067500000 _4_ RTR  --- 94 cbr 210 [0.00 0 0] ------- [4:0 7:0 32 0] [18] 0 0
s 1.071250000 _0_ AGT  --- 95 cbr 210 [0.00 0 0] ------- [0:0 5:0 32 0] [19] 0 0
r 1.071250000 _0_ RTR  --- 95 cbr 210 [0.00 0 0] ------- [0:0 5:0 32 0] [19] 0 0
s 1.071250000 _1_ AGT  --- 96 cbr 210 [0.00 0 0] ------- [1:0 5:1 32 0] [19] 0 0
r 1.071250000 _1_ RTR  --- 96 cbr 210 [0.00 0 0] ------- [1:0 5:1 32 0] [19] 0 0
s 1.071250000 _2_ AGT  --- 97 cbr 210 [0.00 0 0] ------- [2:0 6:0 32 0] [19] 0 0
r 1.071250000 _2_ RTR  --- 97 cbr 210 [0.00 0 0] ------- [2:0 6:0 32 0] [19] 0 0
s 1.071250000 _3_ AGT  --- 98 cbr 210 [0.00 0 0] ------- [3:0 6:1 32 0] [19] 0 0
r 1.071250000 _3_ RTR  --- 98 cbr 210 [0.00 0 0] ------- [3:0 6:1 32 0] [19] 0 0
s 1.071250000 _4_ AGT  --- 99 cbr 210 [0.00 0 0] ------- [4:0 7:0 32 0] [19] 0 0
r 1.071250000 _4_ RTR  --- 99 cbr 210 [0.00 0 0] ------- [4:0 7:0 32 0] [19] 0 0
s 1.072042219 _8_ RTR  --- 0 AODV 48 [0.00 -1 0] ------- [8:255 -1:255 29 0] [0x2 2 1 [5 0] [0 4]] (REQUEST)
s 1.075000000 _0_ AGT  --- 100 cbr 210 [0.00 0 0] ------- [0:0 5:0 32 0] [20] 0 0
r 1.075000000 _0_ RTR  --- 100 cbr 210 [0.00 0 0] ------- [0:0 5:0 32 0] [20] 0 0
s 1.075000000 _1_ AGT  --- 101 cbr 210 [0.00 0 0] ------- [1:0 5:1 32 0] [20] 0 0
r 1.075000000 _1_ RTR  --- 101 cbr 210 [0.00 0 0] ------- [1:0 5:1 32 0] [20] 0 0
s 1.075000000 _2_ AGT  --- 102 cbr 210 [0.00 0 0] ------- [2:0 6:0 32 0] [20] 0 0
r 1.075000000 _2_ RTR  --- 102 cbr 210 [0.00 0 0] ------- [2:0 6:0 32 0] [20] 0 0
s 1.075000000 _3_ AGT  --- 103 cbr 210 [0.00 0 0] ------- [3:0 6:1 32 0] [20] 0 0
r 1.075000000 _3_ RTR  --- 103 cbr 210 [0.00 0 0] ------- [3:0 6:1 32 0] [20] 0 0
s 1.075000000 _4_ AGT  --- 104 cbr 210 [0.00 0 0] ------- [4:0 7:0 32 0] [20] 0 0
r 1.075000000 _4_ RTR  --- 104 cbr 210 [0.00 0 0] ------- [4:0 7:0 32 0] [20] 0 0
s 1.078750000 _0_ AGT  --- 105 cbr 210 [0.00 0 0] ------- [0:0 5:0 32 0] [21] 0 0
r 1.078750000 _0_ RTR  --- 105 cbr 210 [0.00 0 0] ------- [0:0 5:0 32 0] [21] 0 0
s 1.078750000 _1_ AGT  --- 106 cbr 210 [0.00 0 0] ------- [1:0 5:1 32 0] [21] 0 0
r 1.078750000 _1_ RTR  --- 106 cbr 210 [0.00 0 0] ------- [1:0 5:1 32 0] [21] 0 0
s 1.078750000 _2_ AGT  --- 107 cbr 210 [0.00 0 0] ------- [2:0 6:0 32 0] [21] 0 0
r 1.078750000 _2_ RTR  --- 107 cbr 210 [0.00 0 0] ------- [2:0 6:0 32 0] [21] 0 0
s 1.078750000 _3_ AGT  --- 108 cbr 210 [0.00 0 0] ------- [3:0 6:1 32 0] [21] 0 0
r 1.078750000 _3_ RTR  --- 108 cbr 210 [0.00 0 0] ------- [3:0 6:1 32 0] [21] 0 0
s 1.078750000 _4_ AGT  --- 109 cbr 210 [0.00 0 0] ------- [4:0 7:0 32 0] [21] 0 0
r 1.078750000 _4_ RTR  --- 109 cbr 210 [0.00 0 0] ------- [4:0 7:0 32 0] [21] 0 0
s 1.082500000 _0_ AGT  --- 110 cbr 210 [0.00 0 0] ------- [0:0 5:0 32 0] [22] 0 0
r 1.082500000 _0_ RTR  --- 110 cbr 210 [0.00 0 0] ------- [0:0 5:0 32 0] [22] 0 0
s 1.082500000 _1_ AGT  --- 111 cbr 210 [0.00 0 0] ------- [1:0 5:1 32 0] [22] 0 0
r 1.082500000 _1_ RTR  --- 111 cbr 210 [0.00 0 0] ------- [1:0 5:1 32 0] [22] 0 0
s 1.082500000 _2_ AGT  --- 112 cbr 210 [0.00 0 0] ------- [2:0 6:0 32 0] [22] 0 0
r 1.082500000 _2_ RTR  --- 112 cbr 210 [0.00 0 0] ------- [2:0 6:0 32 0] [22] 0 0
s 1.082500000 _3_ AGT  --- 113 cbr 210 [0.00 0 0] ------- [3:0 6:1 32 0] [22] 0 0
r 1.082500000 _3_ RTR  --- 113 cbr 210 [0.00 0 0] ------- [3:0 6:1 32 0] [22] 0 0
s 1.082500000 _4_ AGT  --- 114 cbr 210 [0.00 0 0] ------- [4:0 7:0 32 0] [22] 0 0
r 1.082500000 _4_ RTR  --- 114 cbr 210 [0.00 0 0] ------- [4:0 7:0 32 0] [22] 0 0
s 1.086250000 _0_ AGT  --- 115 cbr 210 [0.00 0 0] ------- [0:0 5:0 32 0] [23] 0 0
r 1.086250000 _0_ RTR  --- 115 cbr 210 [0.00 0 0] ------- [0:0 5:0 32 0] [23] 0 0
s 1.086250000 _1_ AGT  --- 116 cbr 210 [0.00 0 0] ------- [1:0 5:1 32 0] [23] 0 0
r 1.086250000 _1_ RTR  --- 116 cbr 210 [0.00 0 0] ------- [1:0 5:1 32 0] [23] 0 0
s 1.086250000 _2_ AGT  --- 117 cbr 210 [0.00 0 0] ------- [2:0 6:0 32 0] [23] 0 0
r 1.086250000 _2_ RTR  --- 117 cbr 210 [0.00 0 0] ------- [2:0 6:0 32 0] [23] 0 0
s 1.086250000 _3_ AGT  --- 118 cbr 210 [0.00 0 0] ------- [3:0 6:1 32 0] [23] 0 0
r 1.086250000 _3_ RTR  --- 118 cbr 210 [0.00 0 0] ------- [3:0 6:1 32 0] [23] 0 0
s 1.086250000 _4_ AGT  --- 119 cbr 210 [0.00 0 0] ------- [4:0 7:0 32 0] [23] 0 0
r 1.086250000 _4_ RTR  --- 119 cbr 210 [0.00 0 0] ------- [4:0 7:0 32 0] [23] 0 0
s 1.090000000 _0_ AGT  --- 120 cbr 210 [0.00 0 0] ------- [0:0 5:0 32 0] [24] 0 0
r 1.090000000 _0_ RTR  --- 120 cbr 210 [0.00 0 0] ------- [0:0 5:0 32 0] [24] 0 0
s 1.090000000 _1_ AGT  --- 121 cbr 210 [0.00 0 0] ------- [1:0 5:1 32 0] [24] 0 0
r 1.090000000 _1_ RTR  --- 121 cbr 210 [0.00 0 0] ------- [1:0 5:1 32 0] [24] 0 0
s 1.090000000 _2_ AGT  --- 122 cbr 210 [0.00 0 0] ------- [2:0 6:0 32 0] [24] 0 0
r 1.090000000 _2_ RTR  --- 122 cbr 210 [0.00 0 0] ------- [2:0 6:0 32 0] [24] 0 0
s 1.090000000 _3_ AGT  --- 123 cbr 210 [0.00 0 0] ------- [3:0 6:1 32 0] [24] 0 0
r 1.090000000 _3_ RTR  --- 123 cbr 210 [0.00 0 0] ------- [3:0 6:1 32 0] [24] 0 0
s 1.090000000 _4_ AGT  --- 124 cbr 210 [0.00 0 0] ------- [4:0 7:0 32 0] [24] 0 0
r 1.090000000 _4_ RTR  --- 124 cbr 210 [0.00 0 0] ------- [4:0 7:0 32 0] [24] 0 0
s 1.093750000 _0_ AGT  --- 125 cbr 210 [0.00 0 0] ------- [0:0 5:0 32 0] [25] 0 0
r 1.093750000 _0_ RTR  --- 125 cbr 210 [0.00 0 0] ------- [0:0 5:0 32 0] [25] 0 0
s 1.093750000 _1_ AGT  --- 126 cbr 210 [0.00 0 0] ------- [1:0 5:1 32 0] [25] 0 0
r 1.093750000 _1_ RTR  --- 126 cbr 210 [0.00 0 0] ------- [1:0 5:1 32 0] [25] 0 0
s 1.093750000 _2_ AGT  --- 127 cbr 210 [0.00 0 0] ------- [2:0 6:0 32 0] [25] 0 0
r 1.093750000 _2_ RTR  --- 127 cbr 210 [0.00 0 0] ------- [2:0 6:0 32 0] [25] 0 0
s 1.093750000 _3_ AGT  --- 128 cbr 210 [0.00 0 0] ------- [3:0 6:1 32 0] [25] 0 0
r 1.093750000 _3_ RTR  --- 128 cbr 210 [0.00 0 0] ------- [3:0 6:1 32 0] [25] 0 0
s 1.093750000 _4_ AGT  --- 129 cbr 210 [0.00 0 0] ------- [4:0 7:0 32 0] [25] 0 0
r 1.093750000 _4_ RTR  --- 129 cbr 210 [0.00 0 0] ------- [4:0 7:0 32 0] [25] 0 0
s 1.097500000 _0_ AGT  --- 130 cbr 210 [0.00 0 0] ------- [0:0 5:0 32 0] [26] 0 0
r 1.097500000 _0_ RTR  --- 130 cbr 210 [0.00 0 0] ------- [0:0 5:0 32 0] [26] 0 0
s 1.097500000 _1_ AGT  --- 131 cbr 210 [0.00 0 0] ------- [1:0 5:1 32 0] [26] 0 0
r 1.097500000 _1_ RTR  --- 131 cbr 210 [0.00 0 0] ------- [1:0 5:1 32 0] [26] 0 0
s 1.097500000 _2_ AGT  --- 132 cbr 210 [0.00 0 0] ------- [2:0 6:0 32 0] [26] 0 0
r 1.097500000 _2_ RTR  --- 132 cbr 210 [0.00 0 0] ------- [2:0 6:0 32 0] [26] 0 0
s 1.097500000 _3_ AGT  --- 133 cbr 210 [0.00 0 0] ------- [3:0 6:1 32 0] [26] 0 0
r 1.097500000 _3_ RTR  --- 133 cbr 210 [0.00 0 0] ------- [3:0 6:1 32 0] [26] 0 0
s 1.097500000 _4_ AGT  --- 134 cbr 210 [0.00 0 0] ------- [4:0 7:0 32 0] [26] 0 0
r 1.097500000 _4_ RTR  --- 134 cbr 210 [0.00 0 0] ------- [4:0 7:0 32 0] [26] 0 0
s 1.101250000 _0_ AGT  --- 135 cbr 210 [0.00 0 0] ------- [0:0 5:0 32 0] [27] 0 0
r 1.101250000 _0_ RTR  --- 135 cbr 210 [0.00 0 0] ------- [0:0 5:0 32 0] [27] 0 0
s 1.101250000 _1_ AGT  --- 136 cbr 210 [0.00 0 0] ------- [1:0 5:1 32 0] [27] 0 0
r 1.101250000 _1_ RTR  --- 136 cbr 210 [0.00 0 0] ------- [1:0 5:1 32 0] [27] 0 0
s 1.101250000 _2_ AGT  --- 137 cbr 210 [0.00 0 0] ------- [2:0 6:0 32 0] [27] 0 0
r 1.101250000 _2_ RTR  --- 137 cbr 210 [0.00 0 0] ------- [2:0 6:0 32 0] [27] 0 0
s 1.101250000 _3_ AGT  --- 138 cbr 210 [0.00 0 0] ------- [3:0 6:1 32 0] [27] 0 0
r 1.101250000 _3_ RTR  --- 138 cbr 210 [0.00 0 0] ------- [3:0 6:1 32 0] [27] 0 0
s 1.101250000 _4_ AGT  --- 139 cbr 210 [0.00 0 0] ------- [4:0 7:0 32 0] [27] 0 0
r 1.101250000 _4_ RTR  --- 139 cbr 210 [0.00 0 0] ------- [4:0 7:0 32 0] [27] 0 0
s 1.104055415 _5_ MAC  --- 0 ARP 28 [0.00 -1 5] ------- [REQUEST 5/5 0/0]
s 1.105000000 _0_ AGT  --- 140 cbr 210 [0.00 0 0] ------- [0:0 5:0 32 0] [28] 0 0
r 1.105000000 _0_ RTR  --- 140 cbr 210 [0.00 0 0] ------- [0:0 5:0 32 0] [28] 0 0
s 1.105000000 _1_ AGT  --- 141 cbr 210 [0.00 0 0] ------- [1:0 5:1 32 0] [28] 0 0
r 1.105000000 _1_ RTR  --- 141 cbr 210 [0.00 0 0] ------- [1:0 5:1 32 0] [28] 0 0
s 1.105000000 _2_ AGT  --- 142 cbr 210 [0.00 0 0] ------- [2:0 6:0 32 0] [28] 0 0
r 1.105000000 _2_ RTR  --- 142 cbr 210 [0.00 0 0] ------- [2:0 6:0 32 0] [28] 0 0
s 1.105000000 _3_ AGT  --- 143 cbr 210 [0.00 0 0] ------- [3:0 6:1 32 0] [28] 0 0
r 1.105000000 _3_ RTR  --- 143 cbr 210 [0.00 0 0] ------- [3:0 6:1 32 0] [28] 0 0
s 1.105000000 _4_ AGT  --- 144 cbr 210 [0.00 0 0] ------- [4:0 7:0 32 0] [28] 0 0
r 1.105000000 _4_ RTR  --- 144 cbr 210 [0.00 0 0] ------- [4:0 7:0 32 0] [28] 0 0
s 1.108750000 _0_ AGT  --- 145 cbr 210 [0.00 0 0] ------- [0:0 5:0 32 0] [29] 0 0
r 1.108750000 _0_ RTR  --- 145 cbr 210 [0.00 0 0] ------- [0:0 5:0 32 0] [29] 0 0
s 1.108750000 _1_ AGT  --- 146 cbr 210 [0.00 0 0] ------- [1:0 5:1 32 0] [29] 0 0
r 1.108750000 _1_ RTR  --- 146 cbr 210 [0.00 0 0] ------- [1:0 5:1 32 0] [29] 0 0
s 1.108750000 _2_ AGT  --- 147 cbr 210 [0.00 0 0] ------- [2:0 6:0 32 0] [29] 0 0
r 1.108750000 _2_ RTR  --- 147 cbr 210 [0.00 0 0] ------- [2:0 6:0 32 0] [29] 0 0
s 1.108750000 _3_ AGT  --- 148 cbr 210 [0.00 0 0] ------- [3:0 6:1 32 0] [29] 0 0
r 1.108750000 _3_ RTR  --- 148 cbr 210 [0.00 0 0] ------- [3:0 6:1 32 0] [29] 0 0
s 1.108750000 _4_ AGT  --- 149 cbr 210 [0.00 0 0] ------- [4:0 7:0 32 0] [29] 0 0
r 1.108750000 _4_ RTR  --- 149 cbr 210 [0.00 0 0] ------- [4:0 7:0 32 0] [29] 0 0
s 1.112500000 _0_ AGT  --- 150 cbr 210 [0.00 0 0] ------- [0:0 5:0 32 0] [30] 0 0
r 1.112500000 _0_ RTR  --- 150 cbr 210 [0.00 0 0] ------- [0:0 5:0 32 0] [30] 0 0
s 1.112500000 _1_ AGT  --- 151 cbr 210 [0.00 0 0] ------- [1:0 5:1 32 0] [30] 0 0
r 1.112500000 _1_ RTR  --- 151 cbr 210 [0.00 0 0] ------- [1:0 5:1 32 0] [30] 0 0
s 1.112500000 _2_ AGT  --- 152 cbr 210 [0.00 0 0] ------- [2:0 6:0 32 0] [30] 0 0
r 1.112500000 _2_ RTR  --- 152 cbr 210 [0.00 0 0] ------- [2:0 6:0 32 0] [30] 0 0
s 1.112500000 _3_ AGT  --- 153 cbr 210 [0.00 0 0] ------- [3:0 6:1 32 0] [30] 0 0
r 1.112500000 _3_ RTR  --- 153 cbr 210 [0.00 0 0] ------- [3:0 6:1 32 0] [30] 0 0
s 1.112500000 _4_ AGT  --- 154 cbr 210 [0.00 0 0] ------- [4:0 7:0 32 0] [30] 0 0
r 1.112500000 _4_ RTR  --- 154 cbr 210 [0.00 0 0] ------- [4:0 7:0 32 0] [30] 0 0
s 1.116250000 _0_ AGT  --- 155 cbr 210 [0.00 0 0] ------- [0:0 5:0 32 0] [31] 0 0
r 1.116250000 _0_ RTR  --- 155 cbr 210 [0.00 0 0] ------- [0:0 5:0 32 0] [31] 0 0
s 1.116250000 _1_ AGT  --- 156 cbr 210 [0.00 0 0] ------- [1:0 5:1 32 0] [31] 0 0
r 1.116250000 _1_ RTR  --- 156 cbr 210 [0.00 0 0] ------- [1:0 5:1 32 0] [31] 0 0
s 1.116250000 _2_ AGT  --- 157 cbr 210 [0.00 0 0] ------- [2:0 6:0 32 0] [31] 0 0
r 1.116250000 _2_ RTR  --- 157 cbr 210 [0.00 0 0] ------- [2:0 6:0 32 0] [31] 0 0
s 1.116250000 _3_ AGT  --- 158 cbr 210 [0.00 0 0] ------- [3:0 6:1 32 0] [31] 0 0
r 1.116250000 _3_ RTR  --- 158 cbr 210 [0.00 0 0] ------- [3:0 6:1 32 0] [31] 0 0
s 1.116250000 _4_ AGT  --- 159 cbr 210 [0.00 0 0] ------- [4:0 7:0 32 0] [31] 0 0
r 1.116250000 _4_ RTR  --- 159 cbr 210 [0.00 0 0] ------- [4:0 7:0 32 0] [31] 0 0
s 1.120000000 _0_ AGT  --- 160 cbr 210 [0.00 0 0] ------- [0:0 5:0 32 0] [32] 0 0
r 1.120000000 _0_ RTR  --- 160 cbr 210 [0.00 0 0] ------- [0:0 5:0 32 0] [32] 0 0
s 1.120000000 _1_ AGT  --- 161 cbr 210 [0.00 0 0] ------- [1:0 5:1 32 0] [32] 0 0
r 1.120000000 _1_ RTR  --- 161 cbr 210 [0.00 0 0] ------- [1:0 5:1 32 0] [32] 0 0
s 1.120000000 _2_ AGT  --- 162 cbr 210 [0.00 0 0] ------- [2:0 6:0 32 0] [32] 0 0
r 1.120000000 _2_ RTR  --- 162 cbr 210 [0.00 0 0] ------- [2:0 6:0 32 0] [32] 0 0
s 1.120000000 _3_ AGT  --- 163 cbr 210 [0.00 0 0] ------- [3:0 6:1 32 0] [32] 0 0
r 1.120000000 _3_ RTR  --- 163 cbr 210 [0.00 0 0] ------- [3:0 6:1 32 0] [32] 0 0
s 1.120000000 _4_ AGT  --- 164 cbr 210 [0.00 0 0] ------- [4:0 7:0 32 0] [32] 0 0
r 1.120000000 _4_ RTR  --- 164 cbr 210 [0.00 0 0] ------- [4:0 7:0 32 0] [32] 0 0
s 1.123750000 _0_ AGT  --- 165 cbr 210 [0.00 0 0] ------- [0:0 5:0 32 0] [33] 0 0
r 1.123750000 _0_ RTR  --- 165 cbr 210 [0.00 0 0] ------- [0:0 5:0 32 0] [33] 0 0
s 1.123750000 _1_ AGT  --- 166 cbr 210 [0.00 0 0] ------- [1:0 5:1 32 0] [33] 0 0
r 1.123750000 _1_ RTR  --- 166 cbr 210 [0.00 0 0] ------- [1:0 5:1 32 0] [33] 0 0
s 1.123750000 _2_ AGT  --- 167 cbr 210 [0.00 0 0] ------- [2:0 6:0 32 0] [33] 0 0
r 1.123750000 _2_ RTR  --- 167 cbr 210 [0.00 0 0] ------- [2:0 6:0 32 0] [33] 0 0
s 1.123750000 _3_ AGT  --- 168 cbr 210 [0.00 0 0] ------- [3:0 6:1 32 0] [33] 0 0
r 1.123750000 _3_ RTR  --- 168 cbr 210 [0.00 0 0] ------- [3:0 6:1 32 0] [33] 0 0
s 1.123750000 _4_ AGT  --- 169 cbr 210 [0.00 0 0] ------- [4:0 7:0 32 0] [33] 0 0
r 1.123750000 _4_ RTR  --- 169 cbr 210 [0.00 0 0] ------- [4:0 7:0 32 0] [33] 0 0
s 1.127500000 _0_ AGT  --- 170 cbr 210 [0.00 0 0] ------- [0:0 5:0 32 0] [34] 0 0