M 0.00000 0 (412.00, 335.00, 0.00), (413.00, 336.00), 100.00
M 0.00000 1 (170.00, 434.00, 0.00), (171.00, 435.00), 100.00
M 0.00000 2 (141.00, 462.00, 0.00), (142.00, 463.00), 100.00
M 0.00000 3 (82.00, 438.00, 0.00), (83.00, 439.00), 100.00
M 0.00000 4 (287.00, 67.00, 0.00), (288.00, 68.00), 100.00
M 0.00000 5 (401.00, 459.00, 0.00), (402.00, 460.00), 100.00
M 0.00000 6 (51.00, 76.00, 0.00), (52.00, 77.00), 100.00
M 0.00000 7 (172.00, 370.00, 0.00), (173.00, 371.00), 100.00
M 0.00000 8 (335.00, 151.00, 0.00), (336.00, 152.00), 100.00
M 0.00000 9 (286.00, 101.00, 0.00), (287.00, 102.00), 100.00
s 1.000000000 _0_ AGT  --- 0 cbr 210 [0 0 0 0] ------- [0:0 5:0 32 0] [0] 0 0
r 1.000000000 _0_ RTR  --- 0 cbr 210 [0 0 0 0] ------- [0:0 5:0 32 0] [0] 0 0
s 1.000000000 _1_ AGT  --- 1 cbr 210 [0 0 0 0] ------- [1:0 5:1 32 0] [0] 0 0
r 1.000000000 _1_ RTR  --- 1 cbr 210 [0 0 0 0] ------- [1:0 5:1 32 0] [0] 0 0
s 1.000000000 _2_ AGT  --- 2 cbr 210 [0 0 0 0] ------- [2:0 6:0 32 0] [0] 0 0
r 1.000000000 _2_ RTR  --- 2 cbr 210 [0 0 0 0] ------- [2:0 6:0 32 0] [0] 0 0
s 1.000000000 _3_ AGT  --- 3 cbr 210 [0 0 0 0] ------- [3:0 6:1 32 0] [0] 0 0
r 1.000000000 _3_ RTR  --- 3 cbr 210 [0 0 0 0] ------- [3:0 6:1 32 0] [0] 0 0
s 1.000000000 _4_ AGT  --- 4 cbr 210 [0 0 0 0] ------- [4:0 7:0 32 0] [0] 0 0
r 1.000000000 _4_ RTR  --- 4 cbr 210 [0 0 0 0] ------- [4:0 7:0 32 0] [0] 0 0
s 1.000000000 _0_ RTR  --- 0 AODV 48 [0 0 0 0] ------- [0:255 -1:255 30 0] [0x2 1 1 [5 0] [0 4]] (REQUEST)
s 1.000000000 _1_ RTR  --- 0 AODV 48 [0 0 0 0] ------- [1:255 -1:255 30 0] [0x2 1 1 [5 0] [1 4]] (REQUEST)
s 1.000000000 _2_ RTR  --- 0 AODV 48 [0 0 0 0] ------- [2:255 -1:255 30 0] [0x2 1 1 [6 0] [2 4]] (REQUEST)
s 1.000000000 _3_ RTR  --- 0 AODV 48 [0 0 0 0] ------- [3:255 -1:255 30 0] [0x2 1 1 [6 0] [3 4]] (REQUEST)
s 1.000000000 _4_ RTR  --- 0 AODV 48 [0 0 0 0] ------- [4:255 -1:255 30 0] [0x2 1 1 [7 0] [4 4]] (REQUEST)
s 1.000115000 _1_ MAC  --- 0 AODV 106 [0 ffffffff 1 800] ------- [1:255 -1:255 30 0] [0x2 1 1 [5 0] [1 4]] (REQUEST)
r 1.000963134 _2_ MAC  --- 0 AODV 48 [0 ffffffff 1 800] ------- [1:255 -1:255 30 0] [0x2 1 1 [5 0] [1 4]] (REQUEST)
r 1.000963213 _7_ MAC  --- 0 AODV 48 [0 ffffffff 1 800] ------- [1:255 -1:255 30 0] [0x2 1 1 [5 0] [1 4]] (REQUEST)
r 1.000963294 _3_ MAC  --- 0 AODV 48 [0 ffffffff 1 800] ------- [1:255 -1:255 30 0] [0x2 1 1 [5 0] [1 4]] (REQUEST)
r 1.000963774 _5_ MAC  --- 0 AODV 48 [0 ffffffff 1 800] ------- [1:255 -1:255 30 0] [0x2 1 1 [5 0] [1 4]] (REQUEST)
r 1.000988134 _2_ RTR  --- 0 AODV 48 [0 ffffffff 1 800] ------- [1:255 -1:255 30 0] [0x2 1 1 [5 0] [1 4]] (REQUEST)
r 1.000988213 _7_ RTR  --- 0 AODV 48 [0 ffffffff 1 800] ------- [1:255 -1:255 30 0] [0x2 1 1 [5 0] [1 4]] (REQUEST)
r 1.000988294 _3_ RTR  --- 0 AODV 48 [0 ffffffff 1 800] ------- [1:255 -1:255 30 0] [0x2 1 1 [5 0] [1 4]] (REQUEST)
r 1.000988774 _5_ RTR  --- 0 AODV 48 [0 ffffffff 1 800] ------- [1:255 -1:255 30 0] [0x2 1 1 [5 0] [1 4]] (REQUEST)
s 1.000988774 _5_ RTR  --- 0 AODV 44 [0 0 0 0] ------- [5:255 1:255 30 1] [0x4 1 [5 4] 10.000000] (REPLY)
s 1.001273294 _3_ MAC  --- 0 AODV 106 [0 ffffffff 3 800] ------- [3:255 -1:255 30 0] [0x2 1 1 [6 0] [3 4]] (REQUEST)
r 1.002121506 _2_ MAC  --- 0 AODV 48 [0 ffffffff 3 800] ------- [3:255 -1:255 30 0] [0x2 1 1 [6 0] [3 4]] (REQUEST)
r 1.002121587 _1_ MAC  --- 0 AODV 48 [0 ffffffff 3 800] ------- [3:255 -1:255 30 0] [0x2 1 1 [6 0] [3 4]] (REQUEST)
r 1.002121670 _7_ MAC  --- 0 AODV 48 [0 ffffffff 3 800] ------- [3:255 -1:255 30 0] [0x2 1 1 [6 0] [3 4]] (REQUEST)
r 1.002146506 _2_ RTR  --- 0 AODV 48 [0 ffffffff 3 800] ------- [3:255 -1:255 30 0] [0x2 1 1 [6 0] [3 4]] (REQUEST)
r 1.002146587 _1_ RTR  --- 0 AODV 48 [0 ffffffff 3 800] ------- [3:255 -1:255 30 0] [0x2 1 1 [6 0] [3 4]] (REQUEST)
r 1.002146670 _7_ RTR  --- 0 AODV 48 [0 ffffffff 3 800] ------- [3:255 -1:255 30 0] [0x2 1 1 [6 0] [3 4]] (REQUEST)
s 1.002431506 _2_ MAC  --- 0 AODV 106 [0 ffffffff 2 800] ------- [2:255 -1:255 30 0] [0x2 1 1 [6 0] [2 4]] (REQUEST)
s 1.002574615 _7_ RTR  --- 0 AODV 48 [0 ffffffff 3 800] ------- [7:255 -1:255 29 0] [0x2 2 1 [6 0] [3 4]] (REQUEST)
r 1.003279640 _1_ MAC  --- 0 AODV 48 [0 ffffffff 2 800] ------- [2:255 -1:255 30 0] [0x2 1 1 [6 0] [2 4]] (REQUEST)
r 1.003279718 _3_ MAC  --- 0 AODV 48 [0 ffffffff 2 800] ------- [2:255 -1:255 30 0] [0x2 1 1 [6 0] [2 4]] (REQUEST)
r 1.003279830 _7_ MAC  --- 0 AODV 48 [0 ffffffff 2 800] ------- [2:255 -1:255 30 0] [0x2 1 1 [6 0] [2 4]] (REQUEST)
r 1.003304640 _1_ RTR  --- 0 AODV 48 [0 ffffffff 2 800] ------- [2:255 -1:255 30 0] [0x2 1 1 [6 0] [2 4]] (REQUEST)
r 1.003304718 _3_ RTR  --- 0 AODV 48 [0 ffffffff 2 800] ------- [2:255 -1:255 30 0] [0x2 1 1 [6 0] [2 4]] (REQUEST)
r 1.003304830 _7_ RTR  --- 0 AODV 48 [0 ffffffff 2 800] ------- [2:255 -1:255 30 0] [0x2 1 1 [6 0] [2 4]] (REQUEST)
s 1.003334311 _3_ RTR  --- 0 AODV 48 [0 ffffffff 1 800] ------- [3:255 -1:255 29 0] [0x2 2 1 [5 0] [1 4]] (REQUEST)
s 1.003489830 _7_ MAC  --- 0 AODV 106 [0 ffffffff 7 800] ------- [7:255 -1:255 29 0] [0x2 2 1 [6 0] [3 4]] (REQUEST)
s 1.003750000 _0_ AGT  --- 5 cbr 210 [0 0 0 0] ------- [0:0 5:0 32 0] [1] 0 0
r 1.003750000 _0_ RTR  --- 5 cbr 210 [0 0 0 0] ------- [0:0 5:0 32 0] [1] 0 0
s 1.003750000 _1_ AGT  --- 6 cbr 210 [0 0 0 0] ------- [1:0 5:1 32 0] [1] 0 0
r 1.003750000 _1_ RTR  --- 6 cbr 210 [0 0 0 0] ------- [1:0 5:1 32 0] [1] 0 0
s 1.003750000 _2_ AGT  --- 7 cbr 210 [0 0 0 0] ------- [2:0 6:0 32 0] [1] 0 0
r 1.003750000 _2_ RTR  --- 7 cbr 210 [0 0 0 0] ------- [2:0 6:0 32 0] [1] 0 0
s 1.003750000 _3_ AGT  --- 8 cbr 210 [0 0 0 0] ------- [3:0 6:1 32 0] [1] 0 0
r 1.003750000 _3_ RTR  --- 8 cbr 210 [0 0 0 0] ------- [3:0 6:1 32 0] [1] 0 0
s 1.003750000 _4_ AGT  --- 9 cbr 210 [0 0 0 0] ------- [4:0 7:0 32 0] [1] 0 0
r 1.003750000 _4_ RTR  --- 9 cbr 210 [0 0 0 0] ------- [4:0 7:0 32 0] [1] 0 0
s 1.003788041 _1_ RTR  --- 0 AODV 48 [0 ffffffff 3 800] ------- [1:255 -1:255 29 0] [0x2 2 1 [6 0] [3 4]] (REQUEST)
s 1.004117752 _2_ RTR  --- 0 AODV 48 [0 ffffffff 1 800] ------- [2:255 -1:255 29 0] [0x2 2 1 [5 0] [1 4]] (REQUEST)
r 1.004338043 _1_ MAC  --- 0 AODV 48 [0 ffffffff 7 800] ------- [7:255 -1:255 29 0] [0x2 2 1 [6 0] [3 4]] (REQUEST)
r 1.004338153 _2_ MAC  --- 0 AODV 48 [0 ffffffff 7 800] ------- [7:255 -1:255 29 0] [0x2 2 1 [6 0] [3 4]] (REQUEST)
r 1.004338206 _3_ MAC  --- 0 AODV 48 [0 ffffffff 7 800] ------- [7:255 -1:255 29 0] [0x2 2 1 [6 0] [3 4]] (REQUEST)
r 1.004338638 _0_ MAC  --- 0 AODV 48 [0 ffffffff 7 800] ------- [7:255 -1:255 29 0] [0x2 2 1 [6 0] [3 4]] (REQUEST)
r 1.004338649 _5_ MAC  --- 0 AODV 48 [0 ffffffff 7 800] ------- [7:255 -1:255 29 0] [0x2 2 1 [6 0] [3 4]] (REQUEST)
r 1.004363043 _1_ RTR  --- 0 AODV 48 [0 ffffffff 7 800] ------- [7:255 -1:255 29 0] [0x2 2 1 [6 0] [3 4]] (REQUEST)
r 1.004363153 _2_ RTR  --- 0 AODV 48 [0 ffffffff 7 800] ------- [7:255 -1:255 29 0] [0x2 2 1 [6 0] [3 4]] (REQUEST)
r 1.004363206 _3_ RTR  --- 0 AODV 48 [0 ffffffff 7 800] ------- [7:255 -1:255 29 0] [0x2 2 1 [6 0] [3 4]] (REQUEST)
r 1.004363638 _0_ RTR  --- 0 AODV 48 [0 ffffffff 7 800] ------- [7:255 -1:255 29 0] [0x2 2 1 [6 0] [3 4]] (REQUEST)
r 1.004363649 _5_ RTR  --- 0 AODV 48 [0 ffffffff 7 800] ------- [7:255 -1:255 29 0] [0x2 2 1 [6 0] [3 4]] (REQUEST)
s 1.004528649 _5_ MAC  --- 0 ARP 86 [0 ffffffff 5 806] ------- [REQUEST 5/5 0/1]
s 1.005052882 _7_ RTR  --- 0 AODV 48 [0 ffffffff 2 800] ------- [7:255 -1:255 29 0] [0x2 2 1 [6 0] [2 4]] (REQUEST)
r 1.005217063 _0_ MAC  --- 0 ARP 28 [0 ffffffff 5 806] ------- [REQUEST 5/5 0/1]
r 1.005217423 _1_ MAC  --- 0 ARP 28 [0 ffffffff 5 806] ------- [REQUEST 5/5 0/1]
r 1.005217467 _7_ MAC  --- 0 ARP 28 [0 ffffffff 5 806] ------- [REQUEST 5/5 0/1]
s 1.005327467 _7_ MAC  --- 0 AODV 106 [0 ffffffff 7 800] ------- [7:255 -1:255 29 0] [0x2 2 1 [6 0] [2 4]] (REQUEST)
r 1.006175681 _1_ MAC  --- 0 AODV 48 [0 ffffffff 7 800] ------- [7:255 -1:255 29 0] [0x2 2 1 [6 0] [2 4]] (REQUEST)
r 1.006175791 _2_ MAC  --- 0 AODV 48 [0 ffffffff 7 800] ------- [7:255 -1:255 29 0] [0x2 2 1 [6 0] [2 4]] (REQUEST)
r 1.006175843 _3_ MAC  --- 0 AODV 48 [0 ffffffff 7 800] ------- [7:255 -1:255 29 0] [0x2 2 1 [6 0] [2 4]] (REQUEST)
r 1.006176276 _0_ MAC  --- 0 AODV 48 [0 ffffffff 7 800] ------- [7:255 -1:255 29 0] [0x2 2 1 [6 0] [2 4]] (REQUEST)
r 1.006176286 _5_ MAC  --- 0 AODV 48 [0 ffffffff 7 800] ------- [7:255 -1:255 29 0] [0x2 2 1 [6 0] [2 4]] (REQUEST)
r 1.006200681 _1_ RTR  --- 0 AODV 48 [0 ffffffff 7 800] ------- [7:255 -1:255 29 0] [0x2 2 1 [6 0] [2 4]] (REQUEST)
r 1.006200791 _2_ RTR  --- 0 AODV 48 [0 ffffffff 7 800] ------- [7:255 -1:255 29 0] [0x2 2 1 [6 0] [2 4]] (REQUEST)
r 1.006200843 _3_ RTR  --- 0 AODV 48 [0 ffffffff 7 800] ------- [7:255 -1:255 29 0] [0x2 2 1 [6 0] [2 4]] (REQUEST)
r 1.006201276 _0_ RTR  --- 0 AODV 48 [0 ffffffff 7 800] ------- [7:255 -1:255 29 0] [0x2 2 1 [6 0] [2 4]] (REQUEST)
r 1.006201286 _5_ RTR  --- 0 AODV 48 [0 ffffffff 7 800] ------- [7:255 -1:255 29 0] [0x2 2 1 [6 0] [2 4]] (REQUEST)
s 1.006285791 _2_ MAC  --- 0 AODV 106 [0 ffffffff 2 800] ------- [2:255 -1:255 29 0] [0x2 2 1 [5 0] [1 4]] (REQUEST)
s 1.006944518 _0_ RTR  --- 0 AODV 48 [0 ffffffff 7 800] ------- [0:255 -1:255 28 0] [0x2 3 1 [6 0] [3 4]] (REQUEST)
r 1.007133925 _1_ MAC  --- 0 AODV 48 [0 ffffffff 2 800] ------- [2:255 -1:255 29 0] [0x2 2 1 [5 0] [1 4]] (REQUEST)
r 1.007134003 _3_ MAC  --- 0 AODV 48 [0 ffffffff 2 800] ------- [2:255 -1:255 29 0] [0x2 2 1 [5 0] [1 4]] (REQUEST)
r 1.007134115 _7_ MAC  --- 0 AODV 48 [0 ffffffff 2 800] ------- [2:255 -1:255 29 0] [0x2 2 1 [5 0] [1 4]] (REQUEST)
r 1.007158925 _1_ RTR  --- 0 AODV 48 [0 ffffffff 2 800] ------- [2:255 -1:255 29 0] [0x2 2 1 [5 0] [1 4]] (REQUEST)
r 1.007159003 _3_ RTR  --- 0 AODV 48 [0 ffffffff 2 800] ------- [2:255 -1:255 29 0] [0x2 2 1 [5 0] [1 4]] (REQUEST)
r 1.007159115 _7_ RTR  --- 0 AODV 48 [0 ffffffff 2 800] ------- [2:255 -1:255 29 0] [0x2 2 1 [5 0] [1 4]] (REQUEST)
s 1.007243925 _1_ MAC  --- 0 AODV 106 [0 ffffffff 1 800] ------- [1:255 -1:255 29 0] [0x2 2 1 [6 0] [3 4]] (REQUEST)
s 1.007244003 _3_ MAC  --- 0 AODV 106 [0 ffffffff 3 800] ------- [3:255 -1:255 29 0] [0x2 2 1 [5 0] [1 4]] (REQUEST)
D 1.007244216 _2_ MAC  COL 0 AODV 106 [0 ffffffff 1 800] ------- [1:255 -1:255 29 0] [0x2 2 1 [6 0] [3 4]] (REQUEST)
D 1.007244379 _7_ MAC  COL 0 AODV 106 [0 ffffffff 1 800] ------- [1:255 -1:255 29 0] [0x2 2 1 [6 0] [3 4]] (REQUEST)
D 1.007245069 _5_ MAC  COL 0 AODV 106 [0 ffffffff 1 800] ------- [1:255 -1:255 29 0] [0x2 2 1 [6 0] [3 4]] (REQUEST)
s 1.007500000 _0_ AGT  --- 10 cbr 210 [0 0 0 0] ------- [0:0 5:0 32 0] [2] 0 0
r 1.007500000 _0_ RTR  --- 10 cbr 210 [0 0 0 0] ------- [0:0 5:0 32 0] [2] 0 0
s 1.007500000 _1_ AGT  --- 11 cbr 210 [0 0 0 0] ------- [1:0 5:1 32 0] [2] 0 0
r 1.007500000 _1_ RTR  --- 11 cbr 210 [0 0 0 0] ------- [1:0 5:1 32 0] [2] 0 0
s 1.007500000 _2_ AGT  --- 12 cbr 210 [0 0 0 0] ------- [2:0 6:0 32 0] [2] 0 0
r 1.007500000 _2_ RTR  --- 12 cbr 210 [0 0 0 0] ------- [2:0 6:0 32 0] [2] 0 0
s 1.007500000 _3_ AGT  --- 13 cbr 210 [0 0 0 0] ------- [3:0 6:1 32 0] [2] 0 0
r 1.007500000 _3_ RTR  --- 13 cbr 210 [0 0 0 0] ------- [3:0 6:1 32 0] [2] 0 0
s 1.007500000 _4_ AGT  --- 14 cbr 210 [0 0 0 0] ------- [4:0 7:0 32 0] [2] 0 0
r 1.007500000 _4_ RTR  --- 14 cbr 210 [0 0 0 0] ------- [4:0 7:0 32 0] [2] 0 0
s 1.007541286 _3_ RTR  --- 0 AODV 48 [0 ffffffff 2 800] ------- [3:255 -1:255 29 0] [0x2 2 1 [6 0] [2 4]] (REQUEST)
D 1.008092216 _2_ MAC  COL 0 AODV 106 [0 ffffffff 3 800] ------- [3:255 -1:255 29 0] [0x2 2 1 [5 0] [1 4]] (REQUEST)
D 1.008092379 _7_ MAC  COL 0 AODV 106 [0 ffffffff 3 800] ------- [3:255 -1:255 29 0] [0x2 2 1 [5 0] [1 4]] (REQUEST)
s 1.008450505 _5_ RTR  --- 0 AODV 48 [0 ffffffff 7 800] ------- [5:255 -1:255 28 0] [0x2 3 1 [6 0] [3 4]] (REQUEST)
s 1.008627069 _5_ MAC  --- 0 AODV 106 [0 ffffffff 5 800] ------- [5:255 -1:255 28 0] [0x2 3 1 [6 0] [3 4]] (REQUEST)
s 1.009152974 _7_ RTR  --- 0 AODV 48 [0 ffffffff 1 800] ------- [7:255 -1:255 29 0] [0x2 2 1 [5 0] [1 4]] (REQUEST)
r 1.009475484 _0_ MAC  --- 0 AODV 48 [0 ffffffff 5 800] ------- [5:255 -1:255 28 0] [0x2 3 1 [6 0] [3 4]] (REQUEST)
r 1.009475844 _1_ MAC  --- 0 AODV 48 [0 ffffffff 5 800] ------- [5:255 -1:255 28 0] [0x2 3 1 [6 0] [3 4]] (REQUEST)
r 1.009475888 _7_ MAC  --- 0 AODV 48 [0 ffffffff 5 800] ------- [5:255 -1:255 28 0] [0x2 3 1 [6 0] [3 4]] (REQUEST)
r 1.009500484 _0_ RTR  --- 0 AODV 48 [0 ffffffff 5 800] ------- [5:255 -1:255 28 0] [0x2 3 1 [6 0] [3 4]] (REQUEST)
r 1.009500844 _1_ RTR  --- 0 AODV 48 [0 ffffffff 5 800] ------- [5:255 -1:255 28 0] [0x2 3 1 [6 0] [3 4]] (REQUEST)
r 1.009500888 _7_ RTR  --- 0 AODV 48 [0 ffffffff 5 800] ------- [5:255 -1:255 28 0] [0x2 3 1 [6 0] [3 4]] (REQUEST)
s 1.009565484 _0_ MAC  --- 0 AODV 106 [0 ffffffff 0 800] ------- [0:255 -1:255 30 0] [0x2 1 1 [5 0] [0 4]] (REQUEST)
r 1.010413899 _5_ MAC  --- 0 AODV 48 [0 ffffffff 0 800] ------- [0:255 -1:255 30 0] [0x2 1 1 [5 0] [0 4]] (REQUEST)
r 1.010414149 _8_ MAC  --- 0 AODV 48 [0 ffffffff 0 800] ------- [0:255 -1:255 30 0] [0x2 1 1 [5 0] [0 4]] (REQUEST)
r 1.010414292 _7_ MAC  --- 0 AODV 48 [0 ffffffff 0 800] ------- [0:255 -1:255 30 0] [0x2 1 1 [5 0] [0 4]] (REQUEST)
r 1.010438899 _5_ RTR  --- 0 AODV 48 [0 ffffffff 0 800] ------- [0:255 -1:255 30 0] [0x2 1 1 [5 0] [0 4]] (REQUEST)
s 1.010438899 _5_ RTR  --- 0 AODV 44 [0 0 0 0] ------- [5:255 0:255 30 0] [0x4 1 [5 6] 10.000000] (REPLY)
r 1.010439149 _8_ RTR  --- 0 AODV 48 [0 ffffffff 0 800] ------- [0:255 -1:255 30 0] [0x2 1 1 [5 0] [0 4]] (REQUEST)
r 1.010439292 _7_ RTR  --- 0 AODV 48 [0 ffffffff 0 800] ------- [0:255 -1:255 30 0] [0x2 1 1 [5 0] [0 4]] (REQUEST)
s 1.010509741 _2_ RTR  --- 0 AODV 48 [0 ffffffff 3 800] ------- [2:255 -1:255 29 0] [0x2 2 1 [6 0] [3 4]] (REQUEST)
s 1.010573899 _5_ MAC  --- 0 ARP 86 [0 ffffffff 5 806] ------- [REQUEST 5/5 0/0]
s 1.011250000 _0_ AGT  --- 15 cbr 210 [0 0 0 0] ------- [0:0 5:0 32 0] [3] 0 0
r 1.011250000 _0_ RTR  --- 15 cbr 210 [0 0 0 0] ------- [0:0 5:0 32 0] [3] 0 0
s 1.011250000 _1_ AGT  --- 16 cbr 210 [0 0 0 0] ------- [1:0 5:1 32 0] [3] 0 0
r 1.011250000 _1_ RTR  --- 16 cbr 210 [0 0 0 0] ------- [1:0 5:1 32 0] [3] 0 0
s 1.011250000 _2_ AGT  --- 17 cbr 210 [0 0 0 0] ------- [2:0 6:0 32 0] [3] 0 0
r 1.011250000 _2_ RTR  --- 17 cbr 210 [0 0 0 0] ------- [2:0 6:0 32 0] [3] 0 0
s 1.011250000 _3_ AGT  --- 18 cbr 210 [0 0 0 0] ------- [3:0 6:1 32 0] [3] 0 0
r 1.011250000 _3_ RTR  --- 18 cbr 210 [0 0 0 0] ------- [3:0 6:1 32 0] [3] 0 0
s 1.011250000 _4_ AGT  --- 19 cbr 210 [0 0 0 0] ------- [4:0 7:0 32 0] [3] 0 0
r 1.011250000 _4_ RTR  --- 19 cbr 210 [0 0 0 0] ------- [4:0 7:0 32 0] [3] 0 0
r 1.011262314 _0_ MAC  --- 0 ARP 28 [0 ffffffff 5 806] ------- [REQUEST 5/5 0/0]
r 1.011262673 _1_ MAC  --- 0 ARP 28 [0 ffffffff 5 806] ------- [REQUEST 5/5 0/0]
r 1.011262718 _7_ MAC  --- 0 ARP 28 [0 ffffffff 5 806] ------- [REQUEST 5/5 0/0]
s 1.011372718 _7_ MAC  --- 0 AODV 106 [0 ffffffff 7 800] ------- [7:255 -1:255 29 0] [0x2 2 1 [5 0] [1 4]] (REQUEST)
s 1.011901917 _1_ RTR  --- 0 AODV 48 [0 ffffffff 2 800] ------- [1:255 -1:255 29 0] [0x2 2 1 [6 0] [2 4]] (REQUEST)
r 1.012220931 _1_ MAC  --- 0 AODV 48 [0 ffffffff 7 800] ------- [7:255 -1:255 29 0] [0x2 2 1 [5 0] [1 4]] (REQUEST)
r 1.012221042 _2_ MAC  --- 0 AODV 48 [0 ffffffff 7 800] ------- [7:255 -1:255 29 0] [0x2 2 1 [5 0] [1 4]] (REQUEST)
r 1.012221094 _3_ MAC  --- 0 AODV 48 [0 ffffffff 7 800] ------- [7:255 -1:255 29 0] [0x2 2 1 [5 0] [1 4]] (REQUEST)
r 1.012221526 _0_ MAC  --- 0 AODV 48 [0 ffffffff 7 800] ------- [7:255 -1:255 29 0] [0x2 2 1 [5 0] [1 4]] (REQUEST)
r 1.012221537 _5_ MAC  --- 0 AODV 48 [0 ffffffff 7 800] ------- [7:255 -1:255 29 0] [0x2 2 1 [5 0] [1 4]] (REQUEST)
r 1.012245931 _1_ RTR  --- 0 AODV 48 [0 ffffffff 7 800] ------- [7:255 -1:255 29 0] [0x2 2 1 [5 0] [1 4]] (REQUEST)
r 1.012246042 _2_ RTR  --- 0 AODV 48 [0 ffffffff 7 800] ------- [7:255 -1:255 29 0] [0x2 2 1 [5 0] [1 4]] (REQUEST)
r 1.012246094 _3_ RTR  --- 0 AODV 48 [0 ffffffff 7 800] ------- [7:255 -1:255 29 0] [0x2 2 1 [5 0] [1 4]] (REQUEST)
r 1.012246526 _0_ RTR  --- 0 AODV 48 [0 ffffffff 7 800] ------- [7:255 -1:255 29 0] [0x2 2 1 [5 0] [1 4]] (REQUEST)
r 1.012246537 _5_ RTR  --- 0 AODV 48 [0 ffffffff 7 800] ------- [7:255 -1:255 29 0] [0x2 2 1 [5 0] [1 4]] (REQUEST)
s 1.012411526 _0_ MAC  --- 0 AODV 106 [0 ffffffff 0 800] ------- [0:255 -1:255 28 0] [0x2 3 1 [6 0] [3 4]] (REQUEST)
s 1.013124344 _0_ RTR  --- 0 AODV 48 [0 ffffffff 7 800] ------- [0:255 -1:255 28 0] [0x2 3 1 [6 0] [2 4]] (REQUEST)
r 1.013259941 _5_ MAC  --- 0 AODV 48 [0 ffffffff 0 800] ------- [0:255 -1:255 28 0] [0x2 3 1 [6 0] [3 4]] (REQUEST)
r 1.013260191 _8_ MAC  --- 0 AODV 48 [0 ffffffff 0 800] ------- [0:255 -1:255 28 0] [0x2 3 1 [6 0] [3 4]] (REQUEST)
r 1.013260335 _7_ MAC  --- 0 AODV 48 [0 ffffffff 0 800] ------- [0:255 -1:255 28 0] [0x2 3 1 [6 0] [3 4]] (REQUEST)
r 1.013284941 _5_ RTR  --- 0 AODV 48 [0 ffffffff 0 800] ------- [0:255 -1:255 28 0] [0x2 3 1 [6 0] [3 4]] (REQUEST)
r 1.013285191 _8_ RTR  --- 0 AODV 48 [0 ffffffff 0 800] ------- [0:255 -1:255 28 0] [0x2 3 1 [6 0] [3 4]] (REQUEST)
r 1.013285335 _7_ RTR  --- 0 AODV 48 [0 ffffffff 0 800] ------- [0:255 -1:255 28 0] [0x2 3 1 [6 0] [3 4]] (REQUEST)
s 1.013754524 _2_ MAC  --- 0 AODV 106 [0 ffffffff 2 800] ------- [2:255 -1:255 29 0] [0x2 2 1 [6 0] [3 4]] (REQUEST)
s 1.014120179 _0_ RTR  --- 0 AODV 48 [0 ffffffff 7 800] ------- [0:255 -1:255 28 0] [0x2 3 1 [5 0] [1 4]] (REQUEST)
r 1.014602658 _1_ MAC  --- 0 AODV 48 [0 ffffffff 2 800] ------- [2:255 -1:255 29 0] [0x2 2 1 [6 0] [3 4]] (REQUEST)
r 1.014602736 _3_ MAC  --- 0 AODV 48 [0 ffffffff 2 800] ------- [2:255 -1:255 29 0] [0x2 2 1 [6 0] [3 4]] (REQUEST)
r 1.014602848 _7_ MAC  --- 0 AODV 48 [0 ffffffff 2 800] ------- [2:255 -1:255 29 0] [0x2 2 1 [6 0] [3 4]] (REQUEST)
r 1.014627658 _1_ RTR  --- 0 AODV 48 [0 ffffffff 2 800] ------- [2:255 -1:255 29 0] [0x2 2 1 [6 0] [3 4]] (REQUEST)
r 1.014627736 _3_ RTR  --- 0 AODV 48 [0 ffffffff 2 800] ------- [2:255 -1:255 29 0] [0x2 2 1 [6 0] [3 4]] (REQUEST)
r 1.014627848 _7_ RTR  --- 0 AODV 48 [0 ffffffff 2 800] ------- [2:255 -1:255 29 0] [0x2 2 1 [6 0] [3 4]] (REQUEST)
s 1.014672736 _3_ MAC  --- 0 AODV 106 [0 ffffffff 3 800] ------- [3:255 -1:255 29 0] [0x2 2 1 [6 0] [2 4]] (REQUEST)
s 1.014821959 _5_ RTR  --- 0 AODV 48 [0 ffffffff 7 800] ------- [5:255 -1:255 28 0] [0x2 3 1 [6 0] [2 4]] (REQUEST)
s 1.015000000 _0_ AGT  --- 20 cbr 210 [0 0 0 0] ------- [0:0 5:0 32 0] [4] 0 0
r 1.015000000 _0_ RTR  --- 20 cbr 210 [0 0 0 0] ------- [0:0 5:0 32 0] [4] 0 0
s 1.015000000 _1_ AGT  --- 21 cbr 210 [0 0 0 0] ------- [1:0 5:1 32 0] [4] 0 0
r 1.015000000 _1_ RTR  --- 21 cbr 210 [0 0 0 0] ------- [1:0 5:1 32 0] [4] 0 0
s 1.015000000 _2_ AGT  --- 22 cbr 210 [0 0 0 0] ------- [2:0 6:0 32 0] [4] 0 0
r 1.015000000 _2_ RTR  --- 22 cbr 210 [0 0 0 0] ------- [2:0 6:0 32 0] [4] 0 0
s 1.015000000 _3_ AGT  --- 23 cbr 210 [0 0 0 0] ------- [3:0 6:1 32 0] [4] 0 0
r 1.015000000 _3_ RTR  --- 23 cbr 210 [0 0 0 0] ------- [3:0 6:1 32 0] [4] 0 0
s 1.015000000 _4_ AGT  --- 24 cbr 210 [0 0 0 0] ------- [4:0 7:0 32 0] [4] 0 0
r 1.015000000 _4_ RTR  --- 24 cbr 210 [0 0 0 0] ------- [4:0 7:0 32 0] [4] 0 0
r 1.015520949 _2_ MAC  --- 0 AODV 48 [0 ffffffff 3 800] ------- [3:255 -1:255 29 0] [0x2 2 1 [6 0] [2 4]] (REQUEST)
r 1.015521030 _1_ MAC  --- 0 AODV 48 [0 ffffffff 3 800] ------- [3:255 -1:255 29 0] [0x2 2 1 [6 0] [2 4]] (REQUEST)
r 1.015521112 _7_ MAC  --- 0 AODV 48 [0 ffffffff 3 800] ------- [3:255 -1:255 29 0] [0x2 2 1 [6 0] [2 4]] (REQUEST)
r 1.015545949 _2_ RTR  --- 0 AODV 48 [0 ffffffff 3 800] ------- [3:255 -1:255 29 0] [0x2 2 1 [6 0] [2 4]] (REQUEST)
r 1.015546030 _1_ RTR  --- 0 AODV 48 [0 ffffffff 3 800] ------- [3:255 -1:255 29 0] [0x2 2 1 [6 0] [2 4]] (REQUEST)
r 1.015546112 _7_ RTR  --- 0 AODV 48 [0 ffffffff 3 800] ------- [3:255 -1:255 29 0] [0x2 2 1 [6 0] [2 4]] (REQUEST)
s 1.015651030 _1_ MAC  --- 0 RTS 44 [52e 5 1 0] 
r 1.016003804 _5_ MAC  --- 0 RTS 44 [52e 5 1 0] 
s 1.016013804 _5_ MAC  --- 0 CTS 38 [3f4 1 0 0] 
r 1.016318579 _1_ MAC  --- 0 CTS 38 [3f4 1 0 0] 
s 1.016328579 _1_ MAC  --- 0 ARP 86 [13a 5 1 806] ------- [REPLY 1/1 5/5]
r 1.017017353 _5_ MAC  --- 0 ARP 28 [13a 5 1 806] ------- [REPLY 1/1 5/5]
s 1.017027353 _5_ MAC  --- 0 ACK 38 [0 1 0 0] 
r 1.017332128 _1_ MAC  --- 0 ACK 38 [0 1 0 0] 
s 1.017502128 _1_ MAC  --- 0 AODV 106 [0 ffffffff 1 800] ------- [1:255 -1:255 29 0] [0x2 2 1 [6 0] [2 4]] (REQUEST)
s 1.018061468 _8_ RTR  --- 0 AODV 48 [0 ffffffff 0 800] ------- [8:255 -1:255 29 0] [0x2 2 1 [5 0] [0 4]] (REQUEST)
r 1.018350262 _2_ MAC  --- 0 AODV 48 [0 ffffffff 1 800] ------- [1:255 -1:255 29 0] [0x2 2 1 [6 0] [2 4]] (REQUEST)
r 1.018350341 _7_ MAC  --- 0 AODV 48 [0 ffffffff 1 800] ------- [1:255 -1:255 29 0] [0x2 2 1 [6 0] [2 4]] (REQUEST)
r 1.018350422 _3_ MAC  --- 0 AODV 48 [0 ffffffff 1 800] ------- [1:255 -1:255 29 0] [0x2 2 1 [6 0] [2 4]] (REQUEST)
r 1.018350902 _5_ MAC  --- 0 AODV 48 [0 ffffffff 1 800] ------- [1:255 -1:255 29 0] [0x2 2 1 [6 0] [2 4]] (REQUEST)
r 1.018375262 _2_ RTR  --- 0 AODV 48 [0 ffffffff 1 800] ------- [1:255 -1:255 29 0] [0x2 2 1 [6 0] [2 4]] (REQUEST)
r 1.018375341 _7_ RTR  --- 0 AODV 48 [0 ffffffff 1 800] ------- [1:255 -1:255 29 0] [0x2 2 1 [6 0] [2 4]] (REQUEST)
r 1.018375422 _3_ RTR  --- 0 AODV 48 [0 ffffffff 1 800] ------- [1:255 -1:255 29 0] [0x2 2 1 [6 0] [2 4]] (REQUEST)
r 1.018375902 _5_ RTR  --- 0 AODV 48 [0 ffffffff 1 800] ------- [1:255 -1:255 29 0] [0x2 2 1 [6 0] [2 4]] (REQUEST)
s 1.018750000 _0_ AGT  --- 25 cbr 210 [0 0 0 0] ------- [0:0 5:0 32 0] [5] 0 0
r 1.018750000 _0_ RTR  --- 25 cbr 210 [0 0 0 0] ------- [0:0 5:0 32 0] [5] 0 0
s 1.018750000 _1_ AGT  --- 26 cbr 210 [0 0 0 0] ------- [1:0 5:1 32 0] [5] 0 0
r 1.018750000 _1_ RTR  --- 26 cbr 210 [0 0 0 0] ------- [1:0 5:1 32 0] [5] 0 0
s 1.018750000 _2_ AGT  --- 27 cbr 210 [0 0 0 0] ------- [2:0 6:0 32 0] [5] 0 0
r 1.018750000 _2_ RTR  --- 27 cbr 210 [0 0 0 0] ------- [2:0 6:0 32 0] [5] 0 0
s 1.018750000 _3_ AGT  --- 28 cbr 210 [0 0 0 0] ------- [3:0 6:1 32 0] [5] 0 0
r 1.018750000 _3_ RTR  --- 28 cbr 210 [0 0 0 0] ------- [3:0 6:1 32 0] [5] 0 0
s 1.018750000 _4_ AGT  --- 29 cbr 210 [0 0 0 0] ------- [4:0 7:0 32 0] [5] 0 0
r 1.018750000 _4_ RTR  --- 29 cbr 210 [0 0 0 0] ------- [4:0 7:0 32 0] [5] 0 0
s 1.018784999 _0_ MAC  --- 0 AODV 106 [0 ffffffff 0 800] ------- [0:255 -1:255 28 0] [0x2 3 1 [6 0] [2 4]] (REQUEST)
s 1.019488747 _7_ RTR  --- 0 AODV 48 [0 ffffffff 0 800] ------- [7:255 -1:255 29 0] [0x2 2 1 [5 0] [0 4]] (REQUEST)
r 1.019633414 _5_ MAC  --- 0 AODV 48 [0 ffffffff 0 800] ------- [0:255 -1:255 28 0] [0x2 3 1 [6 0] [2 4]] (REQUEST)
r 1.019633664 _8_ MAC  --- 0 AODV 48 [0 ffffffff 0 800] ------- [0:255 -1:255 28 0] [0x2 3 1 [6 0] [2 4]] (REQUEST)
r 1.019633808 _7_ MAC  --- 0 AODV 48 [0 ffffffff 0 800] ------- [0:255 -1:255 28 0] [0x2 3 1 [6 0] [2 4]] (REQUEST)
r 1.019658414 _5_ RTR  --- 0 AODV 48 [0 ffffffff 0 800] ------- [0:255 -1:255 28 0] [0x2 3 1 [6 0] [2 4]] (REQUEST)
r 1.019658664 _8_ RTR  --- 0 AODV 48 [0 ffffffff 0 800] ------- [0:255 -1:255 28 0] [0x2 3 1 [6 0] [2 4]] (REQUEST)
r 1.019658808 _7_ RTR  --- 0 AODV 48 [0 ffffffff 0 800] ------- [0:255 -1:255 28 0] [0x2 3 1 [6 0] [2 4]] (REQUEST)
s 1.019763414 _5_ MAC  --- 0 AODV 106 [0 ffffffff 5 800] ------- [5:255 -1:255 28 0] [0x2 3 1 [6 0] [2 4]] (REQUEST)
r 1.020611829 _0_ MAC  --- 0 AODV 48 [0 ffffffff 5 800] ------- [5:255 -1:255 28 0] [0x2 3 1 [6 0] [2 4]] (REQUEST)
r 1.020612189 _1_ MAC  --- 0 AODV 48 [0 ffffffff 5 800] ------- [5:255 -1:255 28 0] [0x2 3 1 [6 0] [2 4]] (REQUEST)
r 1.020612233 _7_ MAC  --- 0 AODV 48 [0 ffffffff 5 800] ------- [5:255 -1:255 28 0] [0x2 3 1 [6 0] [2 4]] (REQUEST)
r 1.020636829 _0_ RTR  --- 0 AODV 48 [0 ffffffff 5 800] ------- [5:255 -1:255 28 0] [0x2 3 1 [6 0] [2 4]] (REQUEST)
r 1.020637189 _1_ RTR  --- 0 AODV 48 [0 ffffffff 5 800] ------- [5:255 -1:255 28 0] [0x2 3 1 [6 0] [2 4]] (REQUEST)
r 1.020637233 _7_ RTR  --- 0 AODV 48 [0 ffffffff 5 800] ------- [5:255 -1:255 28 0] [0x2 3 1 [6 0] [2 4]] (REQUEST)
s 1.020761829 _0_ MAC  --- 0 AODV 106 [0 ffffffff 0 800] ------- [0:255 -1:255 28 0] [0x2 3 1 [5 0] [1 4]] (REQUEST)
r 1.021610244 _5_ MAC  --- 0 AODV 48 [0 ffffffff 0 800] ------- [0:255 -1:255 28 0] [0x2 3 1 [5 0] [1 4]] (REQUEST)
r 1.021610494 _8_ MAC  --- 0 AODV 48 [0 ffffffff 0 800] ------- [0:255 -1:255 28 0] [0x2 3 1 [5 0] [1 4]] (REQUEST)
r 1.021610638 _7_ MAC  --- 0 AODV 48 [0 ffffffff 0 800] ------- [0:255 -1:255 28 0] [0x2 3 1 [5 0] [1 4]] (REQUEST)
r 1.021635244 _5_ RTR  --- 0 AODV 48 [0 ffffffff 0 800] ------- [0:255 -1:255 28 0] [0x2 3 1 [5 0] [1 4]] (REQUEST)
r 1.021635494 _8_ RTR  --- 0 AODV 48 [0 ffffffff 0 800] ------- [0:255 -1:255 28 0] [0x2 3 1 [5 0] [1 4]] (REQUEST)
r 1.021635638 _7_ RTR  --- 0 AODV 48 [0 ffffffff 0 800] ------- [0:255 -1:255 28 0] [0x2 3 1 [5 0] [1 4]] (REQUEST)
s 1.021659829 _0_ MAC  --- 0 RTS 44 [52e 5 0 0] 
r 1.022012244 _5_ MAC  --- 0 RTS 44 [52e 5 0 0] 
s 1.022022244 _5_ MAC  --- 0 CTS 38 [3f4 0 0 0] 
s 1.022228602 _8_ RTR  --- 0 AODV 48 [0 ffffffff 0 800] ------- [8:255 -1:255 27 0] [0x2 4 1 [6 0] [2 4]] (REQUEST)
r 1.022326659 _0_ MAC  --- 0 CTS 38 [3f4 0 0 0] 
s 1.022336659 _0_ MAC  --- 0 ARP 86 [13a 5 0 806] ------- [REPLY 0/0 5/5]
s 1.022500000 _0_ AGT  --- 30 cbr 210 [0 0 0 0] ------- [0:0 5:0 32 0] [6] 0 0
r 1.022500000 _0_ RTR  --- 30 cbr 210 [0 0 0 0] ------- [0:0 5:0 32 0] [6] 0 0
s 1.022500000 _1_ AGT  --- 31 cbr 210 [0 0 0 0] ------- [1:0 5:1 32 0] [6] 0 0
r 1.022500000 _1_ RTR  --- 31 cbr 210 [0 0 0 0] ------- [1:0 5:1 32 0] [6] 0 0
s 1.022500000 _2_ AGT  --- 32 cbr 210 [0 0 0 0] ------- [2:0 6:0 32 0] [6] 0 0
r 1.022500000 _2_ RTR  --- 32 cbr 210 [0 0 0 0] ------- [2:0 6:0 32 0] [6] 0 0
s 1.022500000 _3_ AGT  --- 33 cbr 210 [0 0 0 0] ------- [3:0 6:1 32 0] [6] 0 0
r 1.022500000 _3_ RTR  --- 33 cbr 210 [0 0 0 0] ------- [3:0 6:1 32 0] [6] 0 0
s 1.022500000 _4_ AGT  --- 34 cbr 210 [0 0 0 0] ------- [4:0 7:0 32 0] [6] 0 0
r 1.022500000 _4_ RTR  --- 34 cbr 210 [0 0 0 0] ------- [4:0 7:0 32 0] [6] 0 0
s 1.022747841 _8_ RTR  --- 0 AODV 48 [0 ffffffff 0 800] ------- [8:255 -1:255 27 0] [0x2 4 1 [6 0] [3 4]] (REQUEST)
r 1.023025074 _5_ MAC  --- 0 ARP 28 [13a 5 0 806] ------- [REPLY 0/0 5/5]
s 1.023035074 _5_ MAC  --- 0 ACK 38 [0 0 0 0] 
r 1.023339489 _0_ MAC  --- 0 ACK 38 [0 0 0 0] 
s 1.023489893 _7_ MAC  --- 0 AODV 106 [0 ffffffff 7 800] ------- [7:255 -1:255 29 0] [0x2 2 1 [5 0] [0 4]] (REQUEST)
r 1.024338107 _1_ MAC  --- 0 AODV 48 [0 ffffffff 7 800] ------- [7:255 -1:255 29 0] [0x2 2 1 [5 0] [0 4]] (REQUEST)
r 1.024338217 _2_ MAC  --- 0 AODV 48 [0 ffffffff 7 800] ------- [7:255 -1:255 29 0] [0x2 2 1 [5 0] [0 4]] (REQUEST)
r 1.024338269 _3_ MAC  --- 0 AODV 48 [0 ffffffff 7 800] ------- [7:255 -1:255 29 0] [0x2 2 1 [5 0] [0 4]] (REQUEST)
r 1.024338702 _0_ MAC  --- 0 AODV 48 [0 ffffffff 7 800] ------- [7:255 -1:255 29 0] [0x2 2 1 [5 0] [0 4]] (REQUEST)
r 1.024338712 _5_ MAC  --- 0 AODV 48 [0 ffffffff 7 800] ------- [7:255 -1:255 29 0] [0x2 2 1 [5 0] [0 4]] (REQUEST)
r 1.024363107 _1_ RTR  --- 0 AODV 48 [0 ffffffff 7 800] ------- [7:255 -1:255 29 0] [0x2 2 1 [5 0] [0 4]] (REQUEST)
r 1.024363217 _2_ RTR  --- 0 AODV 48 [0 ffffffff 7 800] ------- [7:255 -1:255 29 0] [0x2 2 1 [5 0] [0 4]] (REQUEST)
r 1.024363269 _3_ RTR  --- 0 AODV 48 [0 ffffffff 7 800] ------- [7:255 -1:255 29 0] [0x2 2 1 [5 0] [0 4]] (REQUEST)
r 1.024363702 _0_ RTR  --- 0 AODV 48 [0 ffffffff 7 800] ------- [7:255 -1:255 29 0] [0x2 2 1 [5 0] [0 4]] (REQUEST)
r 1.024363712 _5_ RTR  --- 0 AODV 48 [0 ffffffff 7 800] ------- [7:255 -1:255 29 0] [0x2 2 1 [5 0] [0 4]] (REQUEST)
s 1.024638792 _2_ RTR  --- 0 AODV 48 [0 ffffffff 7 800] ------- [2:255 -1:255 28 0] [0x2 3 1 [5 0] [0 4]] (REQUEST)
s 1.024668712 _5_ MAC  --- 0 RTS 44 [5ae 1 5 0] 
r 1.025021487 _1_ MAC  --- 0 RTS 44 [5ae 1 5 0] 
s 1.025031487 _1_ MAC  --- 0 CTS 38 [474 5 0 0] 
r 1.025336261 _5_ MAC  --- 0 CTS 38 [474 5 0 0] 
s 1.025346261 _5_ MAC  --- 0 AODV 102 [13a 1 5 800] ------- [5:255 1:255 30 1] [0x4 1 [5 4] 10.000000] (REPLY)
r 1.026163036 _1_ MAC  --- 0 AODV 44 [13a 1 5 800] ------- [5:255 1:255 30 1] [0x4 1 [5 4] 10.000000] (REPLY)
s 1.026173036 _1_ MAC  --- 0 ACK 38 [0 5 0 0] 
r 1.026188036 _1_ RTR  --- 0 AODV 44 [13a 1 5 800] ------- [5:255 1:255 30 1] [0x4 1 [5 4] 10.000000] (REPLY)
s 1.026188036 _1_ RTR  --- 1 cbr 230 [0 0 0 0] ------- [1:0 5:1 30 5] [0] 0 0
s 1.026250000 _0_ AGT  --- 35 cbr 210 [0 0 0 0] ------- [0:0 5:0 32 0] [7] 0 0
r 1.026250000 _0_ RTR  --- 35 cbr 210 [0 0 0 0] ------- [0:0 5:0 32 0] [7] 0 0
s 1.026250000 _1_ AGT  --- 36 cbr 210 [0 0 0 0] ------- [1:0 5:1 32 0] [7] 0 0
r 1.026250000 _1_ RTR  --- 36 cbr 210 [0 0 0 0] ------- [1:0 5:1 32 0] [7] 0 0
s 1.026250000 _2_ AGT  --- 37 cbr 210 [0 0 0 0] ------- [2:0 6:0 32 0] [7] 0 0
r 1.026250000 _2_ RTR  --- 37 cbr 210 [0 0 0 0] ------- [2:0 6:0 32 0] [7] 0 0
s 1.026250000 _3_ AGT  --- 38 cbr 210 [0 0 0 0] ------- [3:0 6:1 32 0] [7] 0 0
r 1.026250000 _3_ RTR  --- 38 cbr 210 [0 0 0 0] ------- [3:0 6:1 32 0] [7] 0 0
s 1.026250000 _4_ AGT  --- 39 cbr 210 [0 0 0 0] ------- [4:0 7:0 32 0] [7] 0 0
r 1.026250000 _4_ RTR  --- 39 cbr 210 [0 0 0 0] ------- [4:0 7:0 32 0] [7] 0 0
s 1.026250000 _1_ RTR  --- 36 cbr 230 [0 0 0 0] ------- [1:0 5:1 30 5] [7] 0 0
r 1.026477810 _5_ MAC  --- 0 ACK 38 [0 5 0 0] 
s 1.026577128 _2_ MAC  --- 0 AODV 106 [0 ffffffff 2 800] ------- [2:255 -1:255 28 0] [0x2 3 1 [5 0] [0 4]] (REQUEST)
r 1.027425262 _1_ MAC  --- 0 AODV 48 [0 ffffffff 2 800] ------- [2:255 -1:255 28 0] [0x2 3 1 [5 0] [0 4]] (REQUEST)
r 1.027425340 _3_ MAC  --- 0 AODV 48 [0 ffffffff 2 800] ------- [2:255 -1:255 28 0] [0x2 3 1 [5 0] [0 4]] (REQUEST)
r 1.027425451 _7_ MAC  --- 0 AODV 48 [0 ffffffff 2 800] ------- [2:255 -1:255 28 0] [0x2 3 1 [5 0] [0 4]] (REQUEST)
r 1.027450262 _1_ RTR  --- 0 AODV 48 [0 ffffffff 2 800] ------- [2:255 -1:255 28 0] [0x2 3 1 [5 0] [0 4]] (REQUEST)
r 1.027450340 _3_ RTR  --- 0 AODV 48 [0 ffffffff 2 800] ------- [2:255 -1:255 28 0] [0x2 3 1 [5 0] [0 4]] (REQUEST)
r 1.027450451 _7_ RTR  --- 0 AODV 48 [0 ffffffff 2 800] ------- [2:255 -1:255 28 0] [0x2 3 1 [5 0] [0 4]] (REQUEST)